 vasp.4.6.38 12Jan11 gamma-only
 executed on             LinuxIFC date 2014.05.06  10:22:04
 running on    8 nodes
 distr:  one band on    8 nodes,    1 groups


--------------------------------------------------------------------------------------------------------


 INCAR:
 POTCAR:   PAW_PBE C 08Apr2002                    
 POTCAR:   PAW_PBE H 15Jun2001                    

 ----------------------------------------------------------------------------- 
|                                                                             |
|           W    W    AA    RRRRR   N    N  II  N    N   GGGG   !!!           |
|           W    W   A  A   R    R  NN   N  II  NN   N  G    G  !!!           |
|           W    W  A    A  R    R  N N  N  II  N N  N  G       !!!           |
|           W WW W  AAAAAA  RRRRR   N  N N  II  N  N N  G  GGG   !            |
|           WW  WW  A    A  R   R   N   NN  II  N   NN  G    G                |
|           W    W  A    A  R    R  N    N  II  N    N   GGGG   !!!           |
|                                                                             |
|     This version of vasp.4.6 restores the correct one-centre multipoles     |
|     of the AE-charge density up to L=6. Previous versions truncated the     |
|     augmentation at L=4. This version is compatible with vasp.5.2 and       |
|     technically more accurate.                                              |
|     If you want to recover the old vasp.4.6 behaviour please change us.F    |
|     around line 2801 and 1508 (LYMAX=MIN(4,LYMAX*2) instead LYMAX=LYMAX*2)  |
|     Changes between this and previous vasp version are expected to be       |
|     small, except for f elements.                                           |
|                                                                             |
 ----------------------------------------------------------------------------- 

 POTCAR:   PAW_PBE C 08Apr2002                    
   VRHFIN =C: s2p2                                                              
   LEXCH  = PE                                                                  
   EATOM  =   147.1560 eV,   10.8157 Ry                                         
                                                                                
   TITEL  = PAW_PBE C 08Apr2002                                                 
   LULTRA =        F    use ultrasoft PP ?                                      
   IUNSCR =        0    unscreen: 0-lin 1-nonlin 2-no                           
   RPACOR =     .000    partial core radius                                     
   POMASS =   12.011; ZVAL   =    4.000    mass and valenz                      
   RCORE  =    1.500    outmost cutoff radius                                   
   RWIGS  =    1.630; RWIGS  =     .863    wigner-seitz radius (au A)           
   ENMAX  =  400.000; ENMIN  =  300.000 eV                                      
   ICORE  =        2    local potential                                         
   LCOR   =        T    correct aug charges                                     
   LPAW   =        T    paw PP                                                  
   EAUG   =  644.873                                                            
   DEXC   =     .000                                                            
   RMAX   =    2.266    core radius for proj-oper                               
   RAUG   =    1.300    factor for augmentation sphere                          
   RDEP   =    1.501    radius for radial grids                                 
   RDEPT  =    1.300    core radius for aug-charge                              
   QCUT   =   -5.516; QGAM   =   11.032    optimization parameters              
                                                                                
   Description                                                                  
     l     E      TYP  RCUT    TYP  RCUT                                        
     0   .000     23  1.200                                                     
     0   .000     23  1.200                                                     
     1   .000     23  1.500                                                     
     1  2.500     23  1.500                                                     
     2   .000      7  1.500                                                     
  local pseudopotential read in
  atomic valenz-charges read in
  non local Contribution for L=           0  read in
    real space projection operators read in
  non local Contribution for L=           0  read in
    real space projection operators read in
  non local Contribution for L=           1  read in
    real space projection operators read in
  non local Contribution for L=           1  read in
    real space projection operators read in
    PAW grid and wavefunctions read in
 
   number of l-projection  operators is LMAX  =           4
   number of lm-projection operators is LMMAX =           8
 
 POTCAR:   PAW_PBE H 15Jun2001                    
   VRHFIN =H: ultrasoft test                                                    
   LEXCH  = PE                                                                  
   EATOM  =    12.4884 eV,     .9179 Ry                                         
                                                                                
   TITEL  = PAW_PBE H 15Jun2001                                                 
   LULTRA =        F    use ultrasoft PP ?                                      
   IUNSCR =        0    unscreen: 0-lin 1-nonlin 2-no                           
   RPACOR =     .000    partial core radius                                     
   POMASS =    1.000; ZVAL   =    1.000    mass and valenz                      
   RCORE  =    1.100    outmost cutoff radius                                   
   RWIGS  =     .700; RWIGS  =     .370    wigner-seitz radius (au A)           
   ENMAX  =  250.000; ENMIN  =  200.000 eV                                      
   RCLOC  =     .701    cutoff for local pot                                    
   LCOR   =        T    correct aug charges                                     
   LPAW   =        T    paw PP                                                  
   EAUG   =  400.000                                                            
   RMAX   =    2.174    core radius for proj-oper                               
   RAUG   =    1.200    factor for augmentation sphere                          
   RDEP   =    1.112    radius for radial grids                                 
   QCUT   =   -5.749; QGAM   =   11.498    optimization parameters              
                                                                                
   Description                                                                  
     l     E      TYP  RCUT    TYP  RCUT                                        
     0   .000     23  1.100                                                     
     0   .500     23  1.100                                                     
     1  -.300     23  1.100                                                     
  local pseudopotential read in
  atomic valenz-charges read in
  non local Contribution for L=           0  read in
    real space projection operators read in
  non local Contribution for L=           0  read in
    real space projection operators read in
  non local Contribution for L=           1  read in
    real space projection operators read in
    PAW grid and wavefunctions read in
 
   number of l-projection  operators is LMAX  =           3
   number of lm-projection operators is LMMAX =           5
 
 PAW_PBE C 08Apr2002                    :
 energy of atom  1       EATOM= -147.1560
 kinetic energy error for atom=    0.0288 (will be added to EATOM!!)
 PAW_PBE H 15Jun2001                    :
 energy of atom  2       EATOM=  -12.4884
 kinetic energy error for atom=    0.0098 (will be added to EATOM!!)
 
 EXHCAR: internal setup
 exchange correlation table for  LEXCH =        8
   RHO(1)=    0.500       N(1)  =     2000
   RHO(2)=  100.500       N(2)  =     4000
 
 POSCAR:  {VASPAtoms:2C 6H}                      
  positions in direct lattice
  No initial velocities read in
 


--------------------------------------------------------------------------------------------------------


 ion  position               nearest neighbor table
   1  0.130  0.895  0.161-
   2  0.079  0.040  0.161-
   3  0.098  0.850  0.238-
   4  0.098  0.850  0.083-
   5  0.225  0.895  0.161-
   6  0.110  0.085  0.083-
   7  0.984  0.040  0.161-
   8  0.110  0.085  0.238-
 
  LATTYP: Found a simple cubic cell.
 ALAT       =    25.0000000000
  
  Lattice vectors:
  
 A1 = (  25.0000000000,   0.0000000000,   0.0000000000)
 A2 = (   0.0000000000,  25.0000000000,   0.0000000000)
 A3 = (   0.0000000000,   0.0000000000,  25.0000000000)
 Subroutine PRICEL returns:
 Original cell was already a primitive cell.
 

Analysis of symmetry for initial positions (statically):

 Routine SETGRP: Setting up the symmetry group for a 
 simple cubic supercell.


 Subroutine GETGRP returns: Found  1 space group operations
 (whereof  1 operations were pure point group operations)
 out of a pool of 48 trial point group operations.


The static configuration has the point symmetry C_1 .

Analysis of symmetry for dynamics (positions and initial velocities):

 Subroutine DYNSYM returns: Found  1 space group operations
 (whereof  1 operations were pure point group operations)
 out of a pool of  1 trial space group operations
 (whereof  1 operations were pure point group operations)
 and found also     1 'primitive' translations


The dynamic configuration has the point symmetry C_1 .

Analysis of magnetic symmetry:

 Subroutine MAGSYM returns: Found  1 space group operations
 (whereof  1 operations were pure point group operations)
 out of a pool of  1 trial space group operations
 (whereof  1 operations were pure point group operations)
 and found also     1 'primitive' translations


The magnetic configuration has the point symmetry C_1 .
 
 
 KPOINTS: Automatic Mesh                          

Automatic generation of k-mesh.
 
 Subroutine IBZKPT returns following result:
 ===========================================
 
 Found      1 irreducible k-points:
 
 Following reciprocal coordinates:
            Coordinates               Weight
  0.000000  0.000000  0.000000      1.000000
 
 Following cartesian coordinates:
            Coordinates               Weight
  0.000000  0.000000  0.000000      1.000000
 


--------------------------------------------------------------------------------------------------------




 Dimension of arrays:
   k-Points           NKPTS =      1   number of bands    NBANDS=     16
   number of dos      NEDOS =    301   number of ions     NIONS =      8
   non local maximal  LDIM  =      4   non local SUM 2l+1 LMDIM =      8
   total plane-waves  NPLWV = ******
   max r-space proj   IRMAX =      1   max aug-charges    IRDMAX=   2272
   dimension x,y,z NGX =   168 NGY =  168 NGZ =  168
   dimension x,y,z NGXF=   280 NGYF=  280 NGZF=  280
   support grid    NGXF=   280 NGYF=  280 NGZF=  280
   ions per type =               2   6
 NGX,Y,Z   is equivalent  to a cutoff of  11.17, 11.17, 11.17 a.u.
 NGXF,Y,Z  is equivalent  to a cutoff of  18.62, 18.62, 18.62 a.u.


 I would recommend the setting:
   dimension x,y,z NGX =   163 NGY =  163 NGZ =  163
 SYSTEM =  Bulk nickel calculation                 
 POSCAR =   {VASPAtoms:2C 6H}                      

 Startparameter for this run:
   NWRITE =      2    write-flag & timer
   PREC   = high      medium, high low
   ISTART =      0    job   : 0-new  1-cont  2-samecut
   ICHARG =      2    charge: 1-file 2-atom 10-const
   ISPIN  =      2    spin polarized calculation?
   LNONCOLLINEAR =      F non collinear calculations
   LSORBIT =      F    spin-orbit coupling
   INIWAV =      1    electr: 0-lowe 1-rand  2-diag
   LASPH  =      F    aspherical Exc in radial PAW
   METAGGA=      F    non-selfconsistent MetaGGA calc.

 Electronic Relaxation 1
   ENCUT  =  400.0 eV  29.40 Ry    5.42 a.u.  40.77 40.77 40.77*2*pi/ulx,y,z
   ENINI  =  400.0     initial cutoff
   ENAUG  =  644.9 eV  augmentation charge cutoff
   NELM   =     40;   NELMIN=  2; NELMDL=  0     # of ELM steps 
   EDIFF  = 0.1E-04   stopping-criterion for ELM
   LREAL  =      F    real-space projection
   LCOMPAT=      F    compatible to vasp.4.4
   LREAL_COMPAT= F    compatible to vasp.4.5.1-3
   GGA_COMPAT  = T    GGA compatible to vasp.4.4-vasp.4.6
   LMAXPAW     = -100 max onsite density
   LMAXMIX     =    2 max onsite mixed and CHGCAR
   VOSKOWN=      0    Vosko Wilk Nusair interpolation
   ROPT   =    0.00000   0.00000
 Ionic relaxation
   EDIFFG = 0.1E-03   stopping-criterion for IOM
   NSW    =    100    number of steps for IOM
   NBLOCK =      1;   KBLOCK =    100    inner block; outer block 
   IBRION =      2    ionic relax: 0-MD 1-quasi-New 2-CG
   NFREE  =      1    steps in history (QN), initial steepest desc. (CG)
   ISIF   =      3    stress and relaxation
   IWAVPR =     11    prediction:  0-non 1-charg 2-wave 3-comb
   ISYM   =      2    0-nonsym 1-usesym 2-fastsym
   LCORR  =      T    Harris-Foulkes like correction to forces

   POTIM  =   0.10    time-step for ionic-motion
   TEIN   =    0.0    initial temperature
   TEBEG  =    0.0;   TEEND  =   0.0 temperature during run
   SMASS  =  -3.00    Nose mass-parameter (am)
   estimated Nose-frequenzy (Omega)   =  0.10E-29 period in steps =****** mass=  -0.143E-25a.u.
   NPACO  =    256;   APACO  = 16.0  distance and # of slots for P.C.
   PSTRESS=    0.0 pullay stress

  Mass of Ions in am
   POMASS =  12.01  1.00
  Ionic Valenz
   ZVAL   =   4.00  1.00
  Atomic Wigner-Seitz radii
   RWIGS  =  -1.00 -1.00
   NELECT =      14.0000    total number of electrons
   NUPDOWN=      -1.0000    fix difference up-down

 DOS related values:
   EMIN   =  10.00;   EMAX   =-10.00  energy-range for DOS
   ISMEAR =     1;   SIGMA  =   0.20  broadening in eV -4-tet -1-fermi 0-gaus

 Electronic relaxation 2 (details)
   IALGO  =     38    algorithm
   LDIAG  =      T    sub-space diagonalisation
   IMIX   =      4    mixing-type and parameters
     AMIX     =   0.40;   BMIX     =  1.00
     AMIX_MAG =   1.60;   BMIX_MAG =  1.00
     AMIN     =   0.10
     WC   =   100.;   INIMIX=   1;  MIXPRE=   1

 Intra band minimization:
   WEIMIN = 0.0010     energy-eigenvalue tresh-hold
   EBREAK =  0.16E-06  absolut break condition
   DEPER  =   0.30     relativ break condition  

   TIME   =   0.10     timestep for ELM

  volume/ion in A,a.u.               =    1953.12     13180.34
  Fermi-wavevector in a.u.,eV,Ry     =   0.157826  0.338907  0.024909

 Second variation
   LSECVAR=     F    do a second variation
 
 Write flags
   LWAVE  =      T    write WAVECAR
   LCHARG =      F    write CHGCAR
   LVTOT  =      F    write LOCPOT, local potential
   LELF   =      F    write electronic localiz. function (ELF)
   LORBIT =      0    0 simple, 1 ext, 2 COOP (PROOUT)


 Dipole corrections
   IDIPOL =      0    1-x, 2-y, 3-z
   LDIPOL =      F    correct potential



--------------------------------------------------------------------------------------------------------


 conjugate gradient relaxation of ions
 charge density will be updated during run
 spin polarized calculation
 Variant of blocked Davidson
 Davidson routine will perform the subspace rotation
 performe sub-space diagonalisation
    after iterative eigenvector-optimisation
 modified Broyden-mixing scheme, WC =      100.0
 initial mixing is a Kerker type mixing with AMIX =  0.4000 and BMIX =      1.0000
 Hartree-type preconditioning will be used
 using additional bands            9
 reciprocal scheme for non local part
 calculate Harris-corrections to forces 
   (improved forces if not selfconsistent)
 use gradient corrections 
 use of overlap-Matrix (Vanderbilt PP)
 Methfessel and Paxton  Order N= 1 SIGMA  =   0.20


--------------------------------------------------------------------------------------------------------


  energy-cutoff  :      400.00
  volume of cell :    15625.00
      direct lattice vectors                 reciprocal lattice vectors
    25.000000000  0.000000000  0.000000000     0.040000000  0.000000000  0.000000000
     0.000000000 25.000000000  0.000000000     0.000000000  0.040000000  0.000000000
     0.000000000  0.000000000 25.000000000     0.000000000  0.000000000  0.040000000

  length of vectors
    25.000000000 25.000000000 25.000000000     0.040000000  0.040000000  0.040000000


 
 k-points in units of 2pi/SCALE and weight: Automatic Mesh                          
   0.00000000  0.00000000  0.00000000       1.000
 
 k-points in reciprocal lattice and weights: Automatic Mesh                          
   0.00000000  0.00000000  0.00000000       1.000
 
 position of ions in fractional coordinates (direct lattice) 
   0.13000000  0.89489000  0.16061000
   0.07872000  0.04011000  0.16066000
   0.09831000  0.85009000  0.23816000
   0.09832000  0.85015000  0.08302000
   0.22500000  0.89486000  0.16062000
   0.11041000  0.08490000  0.08311000
   0.98372000  0.04014000  0.16065000
   0.11040000  0.08485000  0.23824000
 
 position of ions in cartesian coordinates  (Angst):
   3.25000000 22.37225000  4.01525000
   1.96800000  1.00275000  4.01650000
   2.45775000 21.25225000  5.95400000
   2.45800000 21.25375000  2.07550000
   5.62500000 22.37150000  4.01550000
   2.76025000  2.12250000  2.07775000
  24.59300000  1.00350000  4.01625000
   2.76000000  2.12125000  5.95600000
 


--------------------------------------------------------------------------------------------------------


 k-point  1 :  0.00000.00000.0000  plane waves: 142029

 maximum and minimum number of plane-waves per node :  17760 17745

 maximum number of plane-waves: 142029
 maximal index in each direction: 
   IXMAX= 40   IYMAX= 40   IZMAX= 40
   IXMIN=-40   IYMIN=-40   IZMIN=  0

 NGX is ok and might be reduce to 162
 NGY is ok and might be reduce to 162
 NGZ is ok and might be reduce to 162

 parallel 3dFFT wavefunction:
    minimum data exchange during FFTs selected (reduces bandwidth)
 parallel 3dFFT charge:
    minimum data exchange during FFTs selected (reduces bandwidth)

 For storing wavefunctions   72.72 MBYTES are necessary
 For predicting wavefunctions  207.91 MBYTES are necessary
Broyden mixing: mesh for mixing (old mesh)
   NGX = 81   NGY = 81   NGZ = 81
  (NGX  =280   NGY  =280   NGZ  =280)
 gives a total of 531441 points
 initial charge density was supplied:
 charge density of overlapping atoms calculated
 number of electron   14.0000000 magnetization    8.0000000
 keeping initial charge density in first step


--------------------------------------------------------------------------------------------------------


 Maximum index for augmentation-charges          282 (set IRDMAX)


--------------------------------------------------------------------------------------------------------


 First call to EWALD:  gamma=   0.071
 Maximum number of real-space cells 3x 3x 3
 Maximum number of reciprocal cells 3x 3x 3

    FEWALD:  VPU time    0.00: CPU time    0.00


----------------------------------------- Iteration    1(   1)  ---------------------------------------


    POTLOK:  VPU time   12.41: CPU time   12.44
    SETDIJ:  VPU time    0.09: CPU time    0.09
    EDDAV :  VPU time   16.80: CPU time   16.86
    DOS   :  VPU time   -0.00: CPU time   -0.00
    ------------------------------------------
      LOOP:  VPU time   29.30: CPU time   29.60

 eigenvalue-minimisations  :    96
 total energy-change (2. order) : 0.3969553E+02  (-0.1855502E+03)
 number of electron   14.0000000 magnetization    8.0000000
 augmentation part    14.0000000 magnetization    8.0000000

 Free energy of the ion-electron system (eV)
  ---------------------------------------------------
  alpha Z        PSCENC =         0.04960013
  Ewald energy   TEWEN  =       158.20609327
  -1/2 Hartree   DENC   =      -442.77836560
  -V(xc)+E(xc)   XCENC  =        36.54091730
  PAW double counting   =        78.54218220      -80.87627233
  entropy T*S    EENTRO =         0.00276141
  eigenvalues    EBANDS =       -79.11763138
  atomic energy  EATOM  =       369.12624373
  ---------------------------------------------------
  free energy    TOTEN  =        39.69552874 eV

  energy without entropy =       39.69276733  energy(sigma->0) =       39.69460827


--------------------------------------------------------------------------------------------------------




----------------------------------------- Iteration    1(   2)  ---------------------------------------


    EDDAV :  VPU time   17.51: CPU time   17.56
    DOS   :  VPU time    0.00: CPU time   -0.00
    ------------------------------------------
      LOOP:  VPU time   17.51: CPU time   71.06

 eigenvalue-minimisations  :   112
 total energy-change (2. order) :-0.3665349E+02  (-0.3640681E+02)
 number of electron   14.0000000 magnetization    8.0000000
 augmentation part    14.0000000 magnetization    8.0000000

 Free energy of the ion-electron system (eV)
  ---------------------------------------------------
  alpha Z        PSCENC =         0.04960013
  Ewald energy   TEWEN  =       158.20609327
  -1/2 Hartree   DENC   =      -442.77836560
  -V(xc)+E(xc)   XCENC  =        36.54091730
  PAW double counting   =        78.54218220      -80.87627233
  entropy T*S    EENTRO =         0.02641983
  eigenvalues    EBANDS =      -115.79477939
  atomic energy  EATOM  =       369.12624373
  ---------------------------------------------------
  free energy    TOTEN  =         3.04203915 eV

  energy without entropy =        3.01561932  energy(sigma->0) =        3.03323254


--------------------------------------------------------------------------------------------------------




----------------------------------------- Iteration    1(   3)  ---------------------------------------


    EDDAV :  VPU time   14.32: CPU time   14.36
    DOS   :  VPU time    0.00: CPU time   -0.00
    ------------------------------------------
      LOOP:  VPU time   14.32: CPU time   14.37

 eigenvalue-minimisations  :   112
 total energy-change (2. order) :-0.2981399E+02  (-0.2918708E+02)
 number of electron   14.0000000 magnetization    8.0000000
 augmentation part    14.0000000 magnetization    8.0000000

 Free energy of the ion-electron system (eV)
  ---------------------------------------------------
  alpha Z        PSCENC =         0.04960013
  Ewald energy   TEWEN  =       158.20609327
  -1/2 Hartree   DENC   =      -442.77836560
  -V(xc)+E(xc)   XCENC  =        36.54091730
  PAW double counting   =        78.54218220      -80.87627233
  entropy T*S    EENTRO =        -0.00267924
  eigenvalues    EBANDS =      -145.57966550
  atomic energy  EATOM  =       369.12624373
  ---------------------------------------------------
  free energy    TOTEN  =       -26.77194603 eV

  energy without entropy =      -26.76926679  energy(sigma->0) =      -26.77105295


--------------------------------------------------------------------------------------------------------




----------------------------------------- Iteration    1(   4)  ---------------------------------------


    EDDAV :  VPU time   11.12: CPU time   11.15
    DOS   :  VPU time    0.00: CPU time   -0.00
    ------------------------------------------
      LOOP:  VPU time   11.12: CPU time   11.28

 eigenvalue-minimisations  :    88
 total energy-change (2. order) : 0.1869100E+02  (-0.2837178E+02)
 number of electron   14.0000000 magnetization    8.0000000
 augmentation part    14.0000000 magnetization    8.0000000

 Free energy of the ion-electron system (eV)
  ---------------------------------------------------
  alpha Z        PSCENC =         0.04960013
  Ewald energy   TEWEN  =       158.20609327
  -1/2 Hartree   DENC   =      -442.77836560
  -V(xc)+E(xc)   XCENC  =        36.54091730
  PAW double counting   =        78.54218220      -80.87627233
  entropy T*S    EENTRO =        -0.10654963
  eigenvalues    EBANDS =      -126.78479248
  atomic energy  EATOM  =       369.12624373
  ---------------------------------------------------
  free energy    TOTEN  =        -8.08094340 eV

  energy without entropy =       -7.97439378  energy(sigma->0) =       -8.04542686


--------------------------------------------------------------------------------------------------------




----------------------------------------- Iteration    1(   5)  ---------------------------------------


    EDDAV :  VPU time    8.82: CPU time    8.87
    DOS   :  VPU time    0.00: CPU time   -0.00
    CHARGE:  VPU time    2.33: CPU time    2.33
    MIXING:  VPU time    0.21: CPU time    0.21
    ------------------------------------------
      LOOP:  VPU time   11.36: CPU time   11.42

 eigenvalue-minimisations  :    64
 total energy-change (2. order) :-0.3815408E+00  (-0.3286590E+00)
 number of electron   13.9909255 magnetization    8.1770219
 augmentation part     0.0776003 magnetization   -1.3765885

 Broyden mixing:
  rms(total) = 0.70067E+00    rms(broyden)= 0.69953E+00
  rms(prec ) = 0.70472E+00
  weight for this iteration     100.00

 Free energy of the ion-electron system (eV)
  ---------------------------------------------------
  alpha Z        PSCENC =         0.04960013
  Ewald energy   TEWEN  =       158.20609327
  -1/2 Hartree   DENC   =      -442.77836560
  -V(xc)+E(xc)   XCENC  =        36.54091730
  PAW double counting   =        78.54218220      -80.87627233
  entropy T*S    EENTRO =        -0.07003085
  eigenvalues    EBANDS =      -127.20285204
  atomic energy  EATOM  =       369.12624373
  ---------------------------------------------------
  free energy    TOTEN  =        -8.46248418 eV

  energy without entropy =       -8.39245333  energy(sigma->0) =       -8.43914057


--------------------------------------------------------------------------------------------------------




----------------------------------------- Iteration    1(   6)  ---------------------------------------


    POTLOK:  VPU time   11.44: CPU time   11.47
    SETDIJ:  VPU time    0.09: CPU time    0.09
    EDDAV :  VPU time    8.80: CPU time    8.83
    DOS   :  VPU time    0.00: CPU time   -0.00
    CHARGE:  VPU time    2.34: CPU time    2.34
    MIXING:  VPU time    0.23: CPU time    0.24
    ------------------------------------------
      LOOP:  VPU time   22.90: CPU time   22.98

 eigenvalue-minimisations  :    64
 total energy-change (2. order) : 0.3602529E+01  (-0.7855616E+00)
 number of electron   13.9904495 magnetization    8.2845181
 augmentation part     0.0936012 magnetization   -1.3855296

 Broyden mixing:
  rms(total) = 0.50221E+00    rms(broyden)= 0.50160E+00
  rms(prec ) = 0.54332E+00
  weight for this iteration     100.00

 eigenvalues of (default mixing * dielectric matrix)
  average eigenvalue GAMMA=   0.6997
  0.6997

 Free energy of the ion-electron system (eV)
  ---------------------------------------------------
  alpha Z        PSCENC =         0.04960013
  Ewald energy   TEWEN  =       158.20609327
  -1/2 Hartree   DENC   =      -446.65273233
  -V(xc)+E(xc)   XCENC  =        40.59764284
  PAW double counting   =        78.72635443      -80.67935502
  entropy T*S    EENTRO =        -0.07311266
  eigenvalues    EBANDS =      -124.16068993
  atomic energy  EATOM  =       369.12624373
  ---------------------------------------------------
  free energy    TOTEN  =        -4.85995554 eV

  energy without entropy =       -4.78684288  energy(sigma->0) =       -4.83558465


--------------------------------------------------------------------------------------------------------




----------------------------------------- Iteration    1(   7)  ---------------------------------------


    POTLOK:  VPU time   11.27: CPU time   11.30
    SETDIJ:  VPU time    0.09: CPU time    0.09
    EDDAV :  VPU time   10.53: CPU time   10.57
    DOS   :  VPU time    0.00: CPU time   -0.00
    CHARGE:  VPU time    2.47: CPU time    2.48
    MIXING:  VPU time    0.24: CPU time    0.25
    ------------------------------------------
      LOOP:  VPU time   24.61: CPU time   24.68

 eigenvalue-minimisations  :    80
 total energy-change (2. order) :-0.9262067E+00  (-0.1074990E+01)
 number of electron   13.9926600 magnetization    8.3221938
 augmentation part     0.0854860 magnetization   -0.4312980

 Broyden mixing:
  rms(total) = 0.11755E+01    rms(broyden)= 0.11744E+01
  rms(prec ) = 0.13001E+01
  weight for this iteration     100.00

 eigenvalues of (default mixing * dielectric matrix)
  average eigenvalue GAMMA=   0.4725
  0.7539  0.1912

 Free energy of the ion-electron system (eV)
  ---------------------------------------------------
  alpha Z        PSCENC =         0.04960013
  Ewald energy   TEWEN  =       158.20609327
  -1/2 Hartree   DENC   =      -449.27647009
  -V(xc)+E(xc)   XCENC  =        40.93171120
  PAW double counting   =        81.91745017      -84.07290521
  entropy T*S    EENTRO =        -0.02614541
  eigenvalues    EBANDS =      -122.64174005
  atomic energy  EATOM  =       369.12624373
  ---------------------------------------------------
  free energy    TOTEN  =        -5.78616226 eV

  energy without entropy =       -5.76001685  energy(sigma->0) =       -5.77744712


--------------------------------------------------------------------------------------------------------




----------------------------------------- Iteration    1(   8)  ---------------------------------------


    POTLOK:  VPU time   11.19: CPU time   11.22
    SETDIJ:  VPU time    0.09: CPU time    0.09
    EDDAV :  VPU time   10.29: CPU time   10.32
    DOS   :  VPU time    0.00: CPU time   -0.00
    CHARGE:  VPU time    2.42: CPU time    2.43
    MIXING:  VPU time    0.26: CPU time    0.26
    ------------------------------------------
      LOOP:  VPU time   24.25: CPU time   25.40

 eigenvalue-minimisations  :    80
 total energy-change (2. order) :-0.1928902E+00  (-0.9097308E+00)
 number of electron   13.9900834 magnetization    8.4205942
 augmentation part     0.0907430 magnetization   -1.2573929

 Broyden mixing:
  rms(total) = 0.39709E+00    rms(broyden)= 0.39472E+00
  rms(prec ) = 0.43378E+00
  weight for this iteration     100.00

 eigenvalues of (default mixing * dielectric matrix)
  average eigenvalue GAMMA=   0.4855
  0.6545  0.6545  0.1477

 Free energy of the ion-electron system (eV)
  ---------------------------------------------------
  alpha Z        PSCENC =         0.04960013
  Ewald energy   TEWEN  =       158.20609327
  -1/2 Hartree   DENC   =      -450.10315450
  -V(xc)+E(xc)   XCENC  =        40.34395284
  PAW double counting   =        83.04881820      -85.27837987
  entropy T*S    EENTRO =        -0.06232844
  eigenvalues    EBANDS =      -121.30989782
  atomic energy  EATOM  =       369.12624373
  ---------------------------------------------------
  free energy    TOTEN  =        -5.97905246 eV

  energy without entropy =       -5.91672402  energy(sigma->0) =       -5.95827631


--------------------------------------------------------------------------------------------------------




----------------------------------------- Iteration    1(   9)  ---------------------------------------


    POTLOK:  VPU time   11.20: CPU time   11.22
    SETDIJ:  VPU time    0.09: CPU time    0.09
    EDDAV :  VPU time    8.85: CPU time    8.88
    DOS   :  VPU time    0.00: CPU time   -0.00
    CHARGE:  VPU time    2.45: CPU time    2.46
    MIXING:  VPU time    0.28: CPU time    0.28
    ------------------------------------------
      LOOP:  VPU time   22.87: CPU time   23.67

 eigenvalue-minimisations  :    64
 total energy-change (2. order) : 0.8664564E-01  (-0.8412583E-01)
 number of electron   13.9904411 magnetization    8.4061059
 augmentation part     0.0880187 magnetization   -1.2889509

 Broyden mixing:
  rms(total) = 0.30820E+00    rms(broyden)= 0.30739E+00
  rms(prec ) = 0.31529E+00
  weight for this iteration     100.00

 eigenvalues of (default mixing * dielectric matrix)
  average eigenvalue GAMMA=   0.4821
  0.7564  0.7564  0.1491  0.2663

 Free energy of the ion-electron system (eV)
  ---------------------------------------------------
  alpha Z        PSCENC =         0.04960013
  Ewald energy   TEWEN  =       158.20609327
  -1/2 Hartree   DENC   =      -451.43759723
  -V(xc)+E(xc)   XCENC  =        40.72631668
  PAW double counting   =        83.50081038      -85.70028666
  entropy T*S    EENTRO =        -0.03794830
  eigenvalues    EBANDS =      -120.32563881
  atomic energy  EATOM  =       369.12624373
  ---------------------------------------------------
  free energy    TOTEN  =        -5.89240682 eV

  energy without entropy =       -5.85445851  energy(sigma->0) =       -5.87975738


--------------------------------------------------------------------------------------------------------




----------------------------------------- Iteration    1(  10)  ---------------------------------------


    POTLOK:  VPU time   11.28: CPU time   11.30
    SETDIJ:  VPU time    0.09: CPU time    0.09
    EDDAV :  VPU time   10.33: CPU time   10.36
    DOS   :  VPU time    0.00: CPU time   -0.00
    CHARGE:  VPU time    2.42: CPU time    2.42
    MIXING:  VPU time    0.30: CPU time    0.30
    ------------------------------------------
      LOOP:  VPU time   24.42: CPU time   24.48

 eigenvalue-minimisations  :    80
 total energy-change (2. order) : 0.2602669E+00  (-0.5928670E-02)
 number of electron   13.9904358 magnetization    8.4202608
 augmentation part     0.0859361 magnetization   -1.2710412

 Broyden mixing:
  rms(total) = 0.34930E+00    rms(broyden)= 0.34927E+00
  rms(prec ) = 0.35772E+00
  weight for this iteration     100.00

 eigenvalues of (default mixing * dielectric matrix)
  average eigenvalue GAMMA=   0.4716
  0.7613  0.7613  0.1494  0.3430  0.3430

 Free energy of the ion-electron system (eV)
  ---------------------------------------------------
  alpha Z        PSCENC =         0.04960013
  Ewald energy   TEWEN  =       158.20609327
  -1/2 Hartree   DENC   =      -451.42970847
  -V(xc)+E(xc)   XCENC  =        40.93328275
  PAW double counting   =        83.23679143      -85.39744822
  entropy T*S    EENTRO =        -0.04251683
  eigenvalues    EBANDS =      -120.31447777
  atomic energy  EATOM  =       369.12624373
  ---------------------------------------------------
  free energy    TOTEN  =        -5.63213997 eV

  energy without entropy =       -5.58962314  energy(sigma->0) =       -5.61796769


--------------------------------------------------------------------------------------------------------




----------------------------------------- Iteration    1(  11)  ---------------------------------------


    POTLOK:  VPU time   11.19: CPU time   11.22
    SETDIJ:  VPU time    0.09: CPU time    0.09
    EDDAV :  VPU time   11.04: CPU time   11.07
    DOS   :  VPU time    0.00: CPU time   -0.00
    CHARGE:  VPU time    2.42: CPU time    2.43
    MIXING:  VPU time    0.32: CPU time    0.32
    ------------------------------------------
      LOOP:  VPU time   25.07: CPU time   26.02

 eigenvalue-minimisations  :    88
 total energy-change (2. order) : 0.3196800E-01  (-0.6327916E-03)
 number of electron   13.9904633 magnetization    8.3934775
 augmentation part     0.0646627 magnetization   -0.4804288

 Broyden mixing:
  rms(total) = 0.34938E+00    rms(broyden)= 0.34928E+00
  rms(prec ) = 0.36227E+00
  weight for this iteration     100.00

 eigenvalues of (default mixing * dielectric matrix)
  average eigenvalue GAMMA=   0.4786
  0.7154  0.7154  0.5456  0.5456  0.1501  0.1993

 Free energy of the ion-electron system (eV)
  ---------------------------------------------------
  alpha Z        PSCENC =         0.04960013
  Ewald energy   TEWEN  =       158.20609327
  -1/2 Hartree   DENC   =      -451.51619746
  -V(xc)+E(xc)   XCENC  =        41.00377595
  PAW double counting   =        83.18930953      -85.33989159
  entropy T*S    EENTRO =        -0.06602669
  eigenvalues    EBANDS =      -120.25307883
  atomic energy  EATOM  =       369.12624373
  ---------------------------------------------------
  free energy    TOTEN  =        -5.60017196 eV

  energy without entropy =       -5.53414528  energy(sigma->0) =       -5.57816307


--------------------------------------------------------------------------------------------------------




----------------------------------------- Iteration    1(  12)  ---------------------------------------


    POTLOK:  VPU time   11.28: CPU time   11.31
    SETDIJ:  VPU time    0.09: CPU time    0.09
    EDDAV :  VPU time   10.33: CPU time   10.35
    DOS   :  VPU time    0.00: CPU time   -0.00
    CHARGE:  VPU time    2.38: CPU time    2.38
    MIXING:  VPU time    0.34: CPU time    0.34
    ------------------------------------------
      LOOP:  VPU time   24.42: CPU time   24.48

 eigenvalue-minimisations  :    80
 total energy-change (2. order) :-0.4436086E+00  (-0.3360938E+01)
 number of electron   13.9901963 magnetization    8.3990394
 augmentation part     0.0861127 magnetization   -1.2946967

 Broyden mixing:
  rms(total) = 0.29014E+00    rms(broyden)= 0.28996E+00
  rms(prec ) = 0.30030E+00
  weight for this iteration     100.00

 eigenvalues of (default mixing * dielectric matrix)
  average eigenvalue GAMMA=   0.6684
  1.1206  1.1206  0.7685  0.7685  0.5969  0.1459  0.1577

 Free energy of the ion-electron system (eV)
  ---------------------------------------------------
  alpha Z        PSCENC =         0.04960013
  Ewald energy   TEWEN  =       158.20609327
  -1/2 Hartree   DENC   =      -449.97463752
  -V(xc)+E(xc)   XCENC  =        40.44324825
  PAW double counting   =        82.65988422      -84.83673421
  entropy T*S    EENTRO =        -0.04830796
  eigenvalues    EBANDS =      -121.66917052
  atomic energy  EATOM  =       369.12624373
  ---------------------------------------------------
  free energy    TOTEN  =        -6.04378060 eV

  energy without entropy =       -5.99547264  energy(sigma->0) =       -6.02767795


--------------------------------------------------------------------------------------------------------




----------------------------------------- Iteration    1(  13)  ---------------------------------------


    POTLOK:  VPU time   11.22: CPU time   11.24
    SETDIJ:  VPU time    0.09: CPU time    0.09
    EDDAV :  VPU time    8.85: CPU time    8.87
    DOS   :  VPU time   -0.00: CPU time   -0.00
    CHARGE:  VPU time    2.27: CPU time    2.28
    MIXING:  VPU time    0.36: CPU time    0.37
    ------------------------------------------
      LOOP:  VPU time   22.80: CPU time   23.27

 eigenvalue-minimisations  :    64
 total energy-change (2. order) :-0.9953129E+00  (-0.2151993E-01)
 number of electron   13.9901716 magnetization    8.4439604
 augmentation part     0.0845574 magnetization   -0.7640058

 Broyden mixing:
  rms(total) = 0.19985E+00    rms(broyden)= 0.19942E+00
  rms(prec ) = 0.21057E+00
  weight for this iteration     100.00

 eigenvalues of (default mixing * dielectric matrix)
  average eigenvalue GAMMA=   0.6656
  1.2290  1.2290  0.7914  0.7914  0.6229  0.3451  0.1482  0.1674

 Free energy of the ion-electron system (eV)
  ---------------------------------------------------
  alpha Z        PSCENC =         0.04960013
  Ewald energy   TEWEN  =       158.20609327
  -1/2 Hartree   DENC   =      -446.31244706
  -V(xc)+E(xc)   XCENC  =        39.39194592
  PAW double counting   =        81.28977985      -83.50236855
  entropy T*S    EENTRO =        -0.08426392
  eigenvalues    EBANDS =      -125.20367691
  atomic energy  EATOM  =       369.12624373
  ---------------------------------------------------
  free energy    TOTEN  =        -7.03909354 eV

  energy without entropy =       -6.95482962  energy(sigma->0) =       -7.01100557


--------------------------------------------------------------------------------------------------------




----------------------------------------- Iteration    1(  14)  ---------------------------------------


    POTLOK:  VPU time   11.20: CPU time   11.23
    SETDIJ:  VPU time    0.09: CPU time    0.09
    EDDAV :  VPU time   10.31: CPU time   10.34
    DOS   :  VPU time   -0.00: CPU time   -0.93
    CHARGE:  VPU time    2.31: CPU time    2.32
    MIXING:  VPU time    0.39: CPU time    0.39
    ------------------------------------------
      LOOP:  VPU time   24.31: CPU time   25.89

 eigenvalue-minimisations  :    80
 total energy-change (2. order) :-0.1060551E+01  (-0.4551510E-01)
 number of electron   13.9904032 magnetization    8.4550431
 augmentation part     0.0757467 magnetization    0.7372194

 Broyden mixing:
  rms(total) = 0.54174E+00    rms(broyden)= 0.54069E+00
  rms(prec ) = 0.55186E+00
  weight for this iteration     100.00

 eigenvalues of (default mixing * dielectric matrix)
  average eigenvalue GAMMA=   0.6751
  1.3323  1.3323  0.7393  0.7393  0.7759  0.6535  0.1481  0.1685  0.1869

 Free energy of the ion-electron system (eV)
  ---------------------------------------------------
  alpha Z        PSCENC =         0.04960013
  Ewald energy   TEWEN  =       158.20609327
  -1/2 Hartree   DENC   =      -445.34765579
  -V(xc)+E(xc)   XCENC  =        38.68534789
  PAW double counting   =        81.66076311      -83.92465295
  entropy T*S    EENTRO =        -0.03699290
  eigenvalues    EBANDS =      -126.51839073
  atomic energy  EATOM  =       369.12624373
  ---------------------------------------------------
  free energy    TOTEN  =        -8.09964425 eV

  energy without entropy =       -8.06265135  energy(sigma->0) =       -8.08731329


--------------------------------------------------------------------------------------------------------




----------------------------------------- Iteration    1(  15)  ---------------------------------------


    POTLOK:  VPU time   11.30: CPU time   11.32
    SETDIJ:  VPU time    0.09: CPU time    0.09
    EDDAV :  VPU time    8.85: CPU time    8.87
    DOS   :  VPU time    0.00: CPU time   -0.00
    CHARGE:  VPU time    2.18: CPU time    2.18
    MIXING:  VPU time    0.42: CPU time    0.42
    ------------------------------------------
      LOOP:  VPU time   22.84: CPU time   22.90

 eigenvalue-minimisations  :    64
 total energy-change (2. order) : 0.2358562E+00  (-0.1348846E+00)
 number of electron   13.9904956 magnetization    8.4659587
 augmentation part     0.0801126 magnetization    0.4057350

 Broyden mixing:
  rms(total) = 0.44641E+00    rms(broyden)= 0.44634E+00
  rms(prec ) = 0.46185E+00
  weight for this iteration     100.00

 eigenvalues of (default mixing * dielectric matrix)
  average eigenvalue GAMMA=   0.6371
  1.2066  1.2066  0.8923  0.7686  0.7686  0.6349  0.1481  0.1681  0.2885  0.2885

 Free energy of the ion-electron system (eV)
  ---------------------------------------------------
  alpha Z        PSCENC =         0.04960013
  Ewald energy   TEWEN  =       158.20609327
  -1/2 Hartree   DENC   =      -443.64149362
  -V(xc)+E(xc)   XCENC  =        38.70663729
  PAW double counting   =        81.09784523      -83.34463782
  entropy T*S    EENTRO =        -0.07693533
  eigenvalues    EBANDS =      -127.98714091
  atomic energy  EATOM  =       369.12624373
  ---------------------------------------------------
  free energy    TOTEN  =        -7.86378803 eV

  energy without entropy =       -7.78685269  energy(sigma->0) =       -7.83814291


--------------------------------------------------------------------------------------------------------




----------------------------------------- Iteration    1(  16)  ---------------------------------------


    POTLOK:  VPU time   11.21: CPU time   11.23
    SETDIJ:  VPU time    0.09: CPU time    0.09
    EDDAV :  VPU time    9.55: CPU time    9.57
    DOS   :  VPU time    0.00: CPU time   -0.00
    CHARGE:  VPU time    2.31: CPU time    2.32
    MIXING:  VPU time    0.45: CPU time    0.45
    ------------------------------------------
      LOOP:  VPU time   23.61: CPU time   26.12

 eigenvalue-minimisations  :    72
 total energy-change (2. order) :-0.2053866E+00  (-0.4993143E-01)
 number of electron   13.9906249 magnetization    8.4728476
 augmentation part     0.0754411 magnetization    0.7681615

 Broyden mixing:
  rms(total) = 0.50714E+00    rms(broyden)= 0.50708E+00
  rms(prec ) = 0.52570E+00
  weight for this iteration     100.00

 eigenvalues of (default mixing * dielectric matrix)
  average eigenvalue GAMMA=   0.5956
  1.1637  1.1637  0.8866  0.7855  0.7855  0.6301  0.3209  0.3209  0.1481  0.1682
  0.1782

 Free energy of the ion-electron system (eV)
  ---------------------------------------------------
  alpha Z        PSCENC =         0.04960013
  Ewald energy   TEWEN  =       158.20609327
  -1/2 Hartree   DENC   =      -444.84409806
  -V(xc)+E(xc)   XCENC  =        38.74198067
  PAW double counting   =        81.37442305      -83.62668109
  entropy T*S    EENTRO =        -0.04327096
  eigenvalues    EBANDS =      -127.05346536
  atomic energy  EATOM  =       369.12624373
  ---------------------------------------------------
  free energy    TOTEN  =        -8.06917462 eV

  energy without entropy =       -8.02590365  energy(sigma->0) =       -8.05475096


--------------------------------------------------------------------------------------------------------




----------------------------------------- Iteration    1(  17)  ---------------------------------------


    POTLOK:  VPU time   11.21: CPU time   11.23
    SETDIJ:  VPU time    0.09: CPU time    0.09
    EDDAV :  VPU time   10.32: CPU time   10.34
    DOS   :  VPU time    0.00: CPU time   -0.00
    CHARGE:  VPU time    2.29: CPU time    2.30
    MIXING:  VPU time    0.48: CPU time    0.48
    ------------------------------------------
      LOOP:  VPU time   24.39: CPU time   24.93

 eigenvalue-minimisations  :    80
 total energy-change (2. order) :-0.5510593E+01  (-0.6168815E+01)
 number of electron   13.9906241 magnetization    8.5501964
 augmentation part     0.0270896 magnetization    0.1874789

 Broyden mixing:
  rms(total) = 0.57392E+00    rms(broyden)= 0.57359E+00
  rms(prec ) = 0.59756E+00
  weight for this iteration     100.00

 eigenvalues of (default mixing * dielectric matrix)
  average eigenvalue GAMMA=   0.6008
  1.0898  1.0898  0.9680  0.7455  0.7455  0.6530  0.4774  0.4774  0.3954  0.1683
  0.1481  0.2514

 Free energy of the ion-electron system (eV)
  ---------------------------------------------------
  alpha Z        PSCENC =         0.04960013
  Ewald energy   TEWEN  =       158.20609327
  -1/2 Hartree   DENC   =      -445.89867874
  -V(xc)+E(xc)   XCENC  =        38.98848229
  PAW double counting   =        81.65827641      -83.90443183
  entropy T*S    EENTRO =        -0.02238050
  eigenvalues    EBANDS =      -131.78297276
  atomic energy  EATOM  =       369.12624373
  ---------------------------------------------------
  free energy    TOTEN  =       -13.57976801 eV

  energy without entropy =      -13.55738750  energy(sigma->0) =      -13.57230784


--------------------------------------------------------------------------------------------------------




----------------------------------------- Iteration    1(  18)  ---------------------------------------


    POTLOK:  VPU time   11.16: CPU time   11.19
    SETDIJ:  VPU time    0.09: CPU time    0.09
    EDDAV :  VPU time    9.52: CPU time    9.55
    DOS   :  VPU time    0.00: CPU time   -0.00
    CHARGE:  VPU time    2.28: CPU time    2.29
    MIXING:  VPU time    0.52: CPU time    0.52
    ------------------------------------------
      LOOP:  VPU time   23.58: CPU time   25.54

 eigenvalue-minimisations  :    72
 total energy-change (2. order) : 0.5433874E+01  (-0.6421971E+01)
 number of electron   13.9906847 magnetization    8.5597663
 augmentation part     0.0752847 magnetization    0.8460541

 Broyden mixing:
  rms(total) = 0.50321E+00    rms(broyden)= 0.50300E+00
  rms(prec ) = 0.52547E+00
  weight for this iteration     100.00

 eigenvalues of (default mixing * dielectric matrix)
  average eigenvalue GAMMA=   0.5626
  1.0950  1.0950  0.9730  0.7442  0.7442  0.6534  0.4957  0.4957  0.3869  0.1481
  0.1683  0.2574  0.0573

 Free energy of the ion-electron system (eV)
  ---------------------------------------------------
  alpha Z        PSCENC =         0.04960013
  Ewald energy   TEWEN  =       158.20609327
  -1/2 Hartree   DENC   =      -445.35739021
  -V(xc)+E(xc)   XCENC  =        38.66973619
  PAW double counting   =        81.53046196      -83.79910754
  entropy T*S    EENTRO =        -0.04535023
  eigenvalues    EBANDS =      -126.52618104
  atomic energy  EATOM  =       369.12624373
  ---------------------------------------------------
  free energy    TOTEN  =        -8.14589374 eV

  energy without entropy =       -8.10054351  energy(sigma->0) =       -8.13077700


--------------------------------------------------------------------------------------------------------




----------------------------------------- Iteration    1(  19)  ---------------------------------------


    POTLOK:  VPU time   11.17: CPU time   11.20
    SETDIJ:  VPU time    0.09: CPU time    0.09
    EDDAV :  VPU time   10.26: CPU time   10.28
    DOS   :  VPU time    0.00: CPU time   -0.00
    CHARGE:  VPU time    2.27: CPU time    2.28
    MIXING:  VPU time    0.55: CPU time    0.55
    ------------------------------------------
      LOOP:  VPU time   24.35: CPU time   25.09

 eigenvalue-minimisations  :    80
 total energy-change (2. order) :-0.3052930E-02  (-0.5688054E-02)
 number of electron   13.9906846 magnetization    8.5765606
 augmentation part     0.0750157 magnetization    0.8665708

 Broyden mixing:
  rms(total) = 0.49820E+00    rms(broyden)= 0.49819E+00
  rms(prec ) = 0.52115E+00
  weight for this iteration     100.00

 eigenvalues of (default mixing * dielectric matrix)
  average eigenvalue GAMMA=   0.6069
  0.9724  0.9724  1.0438  0.7236  0.7236  0.7948  0.7948  0.6440  0.4090  0.4090
  0.1481  0.1683  0.3864  0.3071

 Free energy of the ion-electron system (eV)
  ---------------------------------------------------
  alpha Z        PSCENC =         0.04960013
  Ewald energy   TEWEN  =       158.20609327
  -1/2 Hartree   DENC   =      -445.34781998
  -V(xc)+E(xc)   XCENC  =        38.65704332
  PAW double counting   =        81.44772573      -83.71367110
  entropy T*S    EENTRO =        -0.04544325
  eigenvalues    EBANDS =      -126.52871853
  atomic energy  EATOM  =       369.12624373
  ---------------------------------------------------
  free energy    TOTEN  =        -8.14894667 eV

  energy without entropy =       -8.10350343  energy(sigma->0) =       -8.13379892


--------------------------------------------------------------------------------------------------------




----------------------------------------- Iteration    1(  20)  ---------------------------------------


    POTLOK:  VPU time   11.25: CPU time   11.28
    SETDIJ:  VPU time    0.09: CPU time    0.09
    EDDAV :  VPU time   10.33: CPU time   10.35
    DOS   :  VPU time    0.00: CPU time   -0.00
    CHARGE:  VPU time    2.28: CPU time    2.28
    MIXING:  VPU time    0.59: CPU time    0.59
    ------------------------------------------
      LOOP:  VPU time   24.54: CPU time   24.61

 eigenvalue-minimisations  :    80
 total energy-change (2. order) :-0.1812238E+02  (-0.1807431E+02)
 number of electron   13.9890598 magnetization    8.5824031
 augmentation part     0.0308011 magnetization    0.4904142

 Broyden mixing:
  rms(total) = 0.63393E+00    rms(broyden)= 0.63359E+00
  rms(prec ) = 0.65757E+00
  weight for this iteration     100.00

 eigenvalues of (default mixing * dielectric matrix)
  average eigenvalue GAMMA=   0.5679
  1.0505  0.9793  0.9793  0.7900  0.7900  0.7106  0.7106  0.6380  0.4056  0.4056
  0.3900  0.3057  0.1481  0.1683  0.0460

 Free energy of the ion-electron system (eV)
  ---------------------------------------------------
  alpha Z        PSCENC =         0.04960013
  Ewald energy   TEWEN  =       158.20609327
  -1/2 Hartree   DENC   =      -445.52180360
  -V(xc)+E(xc)   XCENC  =        38.67751093
  PAW double counting   =        81.34908495      -83.60884336
  entropy T*S    EENTRO =         0.00235901
  eigenvalues    EBANDS =      -144.55157554
  atomic energy  EATOM  =       369.12624373
  ---------------------------------------------------
  free energy    TOTEN  =       -26.27133048 eV

  energy without entropy =      -26.27368949  energy(sigma->0) =      -26.27211681


--------------------------------------------------------------------------------------------------------




----------------------------------------- Iteration    1(  21)  ---------------------------------------


    POTLOK:  VPU time   11.20: CPU time   11.22
    SETDIJ:  VPU time    0.09: CPU time    0.09
    EDDAV :  VPU time    8.80: CPU time    8.83
    DOS   :  VPU time    0.00: CPU time   -0.00
    CHARGE:  VPU time    2.26: CPU time    2.26
    MIXING:  VPU time    0.63: CPU time    0.63
    ------------------------------------------
      LOOP:  VPU time   22.98: CPU time   24.58

 eigenvalue-minimisations  :    64
 total energy-change (2. order) : 0.1815703E+02  (-0.1412293E+02)
 number of electron   13.9906568 magnetization    8.6327199
 augmentation part     0.0759270 magnetization    0.9217965

 Broyden mixing:
  rms(total) = 0.50411E+00    rms(broyden)= 0.50382E+00
  rms(prec ) = 0.52699E+00
  weight for this iteration     100.00

 eigenvalues of (default mixing * dielectric matrix)
  average eigenvalue GAMMA=   0.5856
  1.0610  0.9988  0.9988  0.8412  0.8412  0.7882  0.7882  0.5023  0.6315  0.4374
  0.4374  0.2905  0.3543  0.1481  0.1683  0.0829

 Free energy of the ion-electron system (eV)
  ---------------------------------------------------
  alpha Z        PSCENC =         0.04960013
  Ewald energy   TEWEN  =       158.20609327
  -1/2 Hartree   DENC   =      -445.36622778
  -V(xc)+E(xc)   XCENC  =        38.68453163
  PAW double counting   =        81.23429312      -83.48953475
  entropy T*S    EENTRO =        -0.04606684
  eigenvalues    EBANDS =      -126.51323103
  atomic energy  EATOM  =       369.12624373
  ---------------------------------------------------
  free energy    TOTEN  =        -8.11429852 eV

  energy without entropy =       -8.06823168  energy(sigma->0) =       -8.09894290


--------------------------------------------------------------------------------------------------------




----------------------------------------- Iteration    1(  22)  ---------------------------------------


    POTLOK:  VPU time   11.27: CPU time   11.30
    SETDIJ:  VPU time    0.09: CPU time    0.09
    EDDAV :  VPU time    9.50: CPU time    9.53
    DOS   :  VPU time    0.00: CPU time   -0.00
    CHARGE:  VPU time    2.34: CPU time    2.35
    MIXING:  VPU time    0.67: CPU time    0.68
    ------------------------------------------
      LOOP:  VPU time   23.88: CPU time   23.95

 eigenvalue-minimisations  :    72
 total energy-change (2. order) : 0.1769344E+00  (-0.4404970E-01)
 number of electron   13.9905613 magnetization    8.6699942
 augmentation part     0.0773401 magnetization    0.7949566

 Broyden mixing:
  rms(total) = 0.44943E+00    rms(broyden)= 0.44938E+00
  rms(prec ) = 0.46663E+00
  weight for this iteration     100.00

 eigenvalues of (default mixing * dielectric matrix)
  average eigenvalue GAMMA=   0.6071
  0.9462  0.9462  1.0320  1.0320  1.0311  0.8286  0.8286  0.5553  0.6226  0.4843
  0.4843  0.2887  0.4217  0.4217  0.1481  0.1683  0.0811

 Free energy of the ion-electron system (eV)
  ---------------------------------------------------
  alpha Z        PSCENC =         0.04960013
  Ewald energy   TEWEN  =       158.20609327
  -1/2 Hartree   DENC   =      -446.59568799
  -V(xc)+E(xc)   XCENC  =        38.83442276
  PAW double counting   =        81.39088502      -83.64665285
  entropy T*S    EENTRO =        -0.06463756
  eigenvalues    EBANDS =      -125.23763059
  atomic energy  EATOM  =       369.12624373
  ---------------------------------------------------
  free energy    TOTEN  =        -7.93736409 eV

  energy without entropy =       -7.87272652  energy(sigma->0) =       -7.91581823


--------------------------------------------------------------------------------------------------------




----------------------------------------- Iteration    1(  23)  ---------------------------------------


    POTLOK:  VPU time   11.18: CPU time   11.21
    SETDIJ:  VPU time    0.09: CPU time    0.09
    EDDAV :  VPU time   10.30: CPU time   10.33
    DOS   :  VPU time   -0.00: CPU time   -0.00
    CHARGE:  VPU time    2.42: CPU time    2.42
    MIXING:  VPU time    0.72: CPU time    0.72
    ------------------------------------------
      LOOP:  VPU time   24.71: CPU time   25.13

 eigenvalue-minimisations  :    80
 total energy-change (2. order) : 0.2634455E+00  (-0.1014569E+01)
 number of electron   13.9897296 magnetization    8.7370359
 augmentation part     0.0832549 magnetization   -0.7754254

 Broyden mixing:
  rms(total) = 0.28020E+00    rms(broyden)= 0.27816E+00
  rms(prec ) = 0.30547E+00
  weight for this iteration     100.00

 eigenvalues of (default mixing * dielectric matrix)
  average eigenvalue GAMMA=   0.6026
  0.9426  0.9426  1.2057  0.9198  0.9198  0.5550  0.7828  0.7828  0.4864  0.4864
  0.6644  0.5317  0.5317  0.2887  0.4087  0.1481  0.1683  0.0814

 Free energy of the ion-electron system (eV)
  ---------------------------------------------------
  alpha Z        PSCENC =         0.04960013
  Ewald energy   TEWEN  =       158.20609327
  -1/2 Hartree   DENC   =      -448.25531388
  -V(xc)+E(xc)   XCENC  =        39.01274449
  PAW double counting   =        81.81723028      -84.07904968
  entropy T*S    EENTRO =        -0.07408300
  eigenvalues    EBANDS =      -123.47738397
  atomic energy  EATOM  =       369.12624373
  ---------------------------------------------------
  free energy    TOTEN  =        -7.67391863 eV

  energy without entropy =       -7.59983563  energy(sigma->0) =       -7.64922429


--------------------------------------------------------------------------------------------------------




----------------------------------------- Iteration    1(  24)  ---------------------------------------


    POTLOK:  VPU time   11.27: CPU time   11.30
    SETDIJ:  VPU time    0.09: CPU time    0.09
    EDDAV :  VPU time   11.69: CPU time   11.72
    DOS   :  VPU time   -0.00: CPU time   -0.00
    CHARGE:  VPU time    2.47: CPU time    2.48
    MIXING:  VPU time    0.76: CPU time    0.77
    ------------------------------------------
      LOOP:  VPU time   26.30: CPU time   26.36

 eigenvalue-minimisations  :    96
 total energy-change (2. order) : 0.2995963E-03  (-0.4069702E-01)
 number of electron   13.9900747 magnetization    8.7326563
 augmentation part     0.0822223 magnetization   -0.2660135

 Broyden mixing:
  rms(total) = 0.11634E+00    rms(broyden)= 0.11585E+00
  rms(prec ) = 0.12238E+00
  weight for this iteration     100.00

 eigenvalues of (default mixing * dielectric matrix)
  average eigenvalue GAMMA=   0.5815
  0.9458  0.9458  1.2452  0.9218  0.9218  0.5540  0.7793  0.7793  0.4843  0.4843
  0.6753  0.5225  0.5225  0.2888  0.4251  0.1481  0.1683  0.1554  0.0814

 Free energy of the ion-electron system (eV)
  ---------------------------------------------------
  alpha Z        PSCENC =         0.04960013
  Ewald energy   TEWEN  =       158.20609327
  -1/2 Hartree   DENC   =      -448.71696514
  -V(xc)+E(xc)   XCENC  =        39.11111565
  PAW double counting   =        82.19767060      -84.45608579
  entropy T*S    EENTRO =        -0.09392538
  eigenvalues    EBANDS =      -123.09736611
  atomic energy  EATOM  =       369.12624373
  ---------------------------------------------------
  free energy    TOTEN  =        -7.67361903 eV

  energy without entropy =       -7.57969365  energy(sigma->0) =       -7.64231057


--------------------------------------------------------------------------------------------------------




----------------------------------------- Iteration    1(  25)  ---------------------------------------


    POTLOK:  VPU time   11.27: CPU time   11.30
    SETDIJ:  VPU time    0.09: CPU time    0.09
    EDDAV :  VPU time   11.00: CPU time   11.03
    DOS   :  VPU time    0.00: CPU time   -0.00
    CHARGE:  VPU time    2.42: CPU time    2.43
    MIXING:  VPU time    0.81: CPU time    0.81
    ------------------------------------------
      LOOP:  VPU time   25.60: CPU time   25.66

 eigenvalue-minimisations  :    88
 total energy-change (2. order) : 0.2114921E-02  (-0.1853809E-02)
 number of electron   13.9901271 magnetization    8.7607396
 augmentation part     0.0822754 magnetization   -0.1619000

 Broyden mixing:
  rms(total) = 0.12434E+00    rms(broyden)= 0.12428E+00
  rms(prec ) = 0.13170E+00
  weight for this iteration     100.00

 eigenvalues of (default mixing * dielectric matrix)
  average eigenvalue GAMMA=   0.6314
  1.3785  0.9389  0.9389  0.7987  0.9632  0.9632  0.5552  0.8444  0.7682  0.7682
  0.5161  0.5161  0.5956  0.5956  0.2886  0.4002  0.4002  0.1481  0.1683  0.0814

 Free energy of the ion-electron system (eV)
  ---------------------------------------------------
  alpha Z        PSCENC =         0.04960013
  Ewald energy   TEWEN  =       158.20609327
  -1/2 Hartree   DENC   =      -448.80392114
  -V(xc)+E(xc)   XCENC  =        39.12667069
  PAW double counting   =        82.24915078      -84.50898295
  entropy T*S    EENTRO =        -0.09606720
  eigenvalues    EBANDS =      -123.02029144
  atomic energy  EATOM  =       369.12624373
  ---------------------------------------------------
  free energy    TOTEN  =        -7.67150411 eV

  energy without entropy =       -7.57543691  energy(sigma->0) =       -7.63948171


--------------------------------------------------------------------------------------------------------




----------------------------------------- Iteration    1(  26)  ---------------------------------------


    POTLOK:  VPU time   11.16: CPU time   11.19
    SETDIJ:  VPU time    0.09: CPU time    0.09
    EDDAV :  VPU time   11.02: CPU time   11.04
    DOS   :  VPU time    0.00: CPU time   -0.00
    CHARGE:  VPU time    2.41: CPU time    2.42
    MIXING:  VPU time    0.85: CPU time    0.86
    ------------------------------------------
      LOOP:  VPU time   25.54: CPU time   25.82

 eigenvalue-minimisations  :    88
 total energy-change (2. order) :-0.2078214E+00  (-0.1157840E-01)
 number of electron   13.9901066 magnetization    8.8095921
 augmentation part     0.0819285 magnetization   -0.0499678

 Broyden mixing:
  rms(total) = 0.11733E+00    rms(broyden)= 0.11717E+00
  rms(prec ) = 0.12261E+00
  weight for this iteration     100.00

 eigenvalues of (default mixing * dielectric matrix)
  average eigenvalue GAMMA=   0.6727
  1.7048  1.0999  0.9050  0.9050  0.9867  0.9867  0.5562  0.8441  0.8441  0.2886
  0.5183  0.5183  0.7482  0.7482  0.6146  0.6146  0.4232  0.4232  0.1481  0.1683
  0.0814

 Free energy of the ion-electron system (eV)
  ---------------------------------------------------
  alpha Z        PSCENC =         0.04960013
  Ewald energy   TEWEN  =       158.20609327
  -1/2 Hartree   DENC   =      -449.48243416
  -V(xc)+E(xc)   XCENC  =        38.98941090
  PAW double counting   =        82.62451937      -84.89816962
  entropy T*S    EENTRO =        -0.09895146
  eigenvalues    EBANDS =      -122.39563763
  atomic energy  EATOM  =       369.12624373
  ---------------------------------------------------
  free energy    TOTEN  =        -7.87932546 eV

  energy without entropy =       -7.78037401  energy(sigma->0) =       -7.84634165


--------------------------------------------------------------------------------------------------------




----------------------------------------- Iteration    1(  27)  ---------------------------------------


    POTLOK:  VPU time   11.26: CPU time   11.29
    SETDIJ:  VPU time    0.09: CPU time    0.09
    EDDAV :  VPU time    9.71: CPU time    9.73
    DOS   :  VPU time    0.00: CPU time   -0.00
    CHARGE:  VPU time    2.42: CPU time    2.42
    MIXING:  VPU time    0.90: CPU time    0.91
    ------------------------------------------
      LOOP:  VPU time   24.38: CPU time   24.44

 eigenvalue-minimisations  :    72
 total energy-change (2. order) :-0.5821462E+00  (-0.8573772E-01)
 number of electron   13.9907794 magnetization    8.8115516
 augmentation part     0.0759844 magnetization    1.0783574

 Broyden mixing:
  rms(total) = 0.48924E+00    rms(broyden)= 0.48868E+00
  rms(prec ) = 0.51983E+00
  weight for this iteration     100.00

 eigenvalues of (default mixing * dielectric matrix)
  average eigenvalue GAMMA=   0.6446
  1.7188  1.0849  0.9062  0.9062  0.9858  0.9858  0.5564  0.8422  0.8422  0.2886
  0.5181  0.5181  0.7424  0.7424  0.6229  0.6229  0.4217  0.4217  0.1481  0.1683
  0.0557  0.0814

 Free energy of the ion-electron system (eV)
  ---------------------------------------------------
  alpha Z        PSCENC =         0.04960013
  Ewald energy   TEWEN  =       158.20609327
  -1/2 Hartree   DENC   =      -450.03392939
  -V(xc)+E(xc)   XCENC  =        38.69642665
  PAW double counting   =        83.17170820      -85.46741779
  entropy T*S    EENTRO =        -0.04216282
  eigenvalues    EBANDS =      -122.16803369
  atomic energy  EATOM  =       369.12624373
  ---------------------------------------------------
  free energy    TOTEN  =        -8.46147171 eV

  energy without entropy =       -8.41930889  energy(sigma->0) =       -8.44741744


--------------------------------------------------------------------------------------------------------




----------------------------------------- Iteration    1(  28)  ---------------------------------------


    POTLOK:  VPU time   11.27: CPU time   11.29
    SETDIJ:  VPU time    0.09: CPU time    0.09
    EDDAV :  VPU time   11.13: CPU time   11.16
    DOS   :  VPU time    0.00: CPU time   -0.00
    CHARGE:  VPU time    2.43: CPU time    2.43
    MIXING:  VPU time    0.96: CPU time    0.96
    ------------------------------------------
      LOOP:  VPU time   25.87: CPU time   25.94

 eigenvalue-minimisations  :    88
 total energy-change (2. order) :-0.2226072E-01  (-0.1448073E-01)
 number of electron   13.9908009 magnetization    8.8111966
 augmentation part     0.0761623 magnetization    1.0827531

 Broyden mixing:
  rms(total) = 0.49432E+00    rms(broyden)= 0.49429E+00
  rms(prec ) = 0.52547E+00
  weight for this iteration     100.00

 eigenvalues of (default mixing * dielectric matrix)
  average eigenvalue GAMMA=   0.6420
  1.7301  1.1502  0.8981  0.8981  0.9973  0.9973  0.5557  0.8426  0.8426  0.2886
  0.5231  0.5231  0.7480  0.7480  0.6040  0.6040  0.4229  0.4229  0.1481  0.1683
  0.2857  0.2857  0.0814

 Free energy of the ion-electron system (eV)
  ---------------------------------------------------
  alpha Z        PSCENC =         0.04960013
  Ewald energy   TEWEN  =       158.20609327
  -1/2 Hartree   DENC   =      -450.04746118
  -V(xc)+E(xc)   XCENC  =        38.66639912
  PAW double counting   =        83.15496754      -85.45126249
  entropy T*S    EENTRO =        -0.04163620
  eigenvalues    EBANDS =      -122.14667636
  atomic energy  EATOM  =       369.12624373
  ---------------------------------------------------
  free energy    TOTEN  =        -8.48373243 eV

  energy without entropy =       -8.44209624  energy(sigma->0) =       -8.46985370


--------------------------------------------------------------------------------------------------------




----------------------------------------- Iteration    1(  29)  ---------------------------------------


    POTLOK:  VPU time   11.25: CPU time   11.28
    SETDIJ:  VPU time    0.09: CPU time    0.09
    EDDAV :  VPU time    9.67: CPU time    9.69
    DOS   :  VPU time    0.00: CPU time   -0.00
    CHARGE:  VPU time    2.41: CPU time    2.42
    MIXING:  VPU time    1.02: CPU time    1.03
    ------------------------------------------
      LOOP:  VPU time   24.45: CPU time   24.52

 eigenvalue-minimisations  :    72
 total energy-change (2. order) :-0.1158615E+00  (-0.5812973E-02)
 number of electron   13.9908073 magnetization    8.8195601
 augmentation part     0.0755213 magnetization    1.1047088

 Broyden mixing:
  rms(total) = 0.48785E+00    rms(broyden)= 0.48785E+00
  rms(prec ) = 0.51817E+00
  weight for this iteration     100.00

 eigenvalues of (default mixing * dielectric matrix)
  average eigenvalue GAMMA=   0.6770
  1.3139  1.7155  0.8888  0.8888  1.0890  1.0890  0.5550  0.7467  0.7467  0.8408
  0.8408  0.2886  0.5087  0.5087  0.7655  0.6742  0.6263  0.6263  0.4160  0.4160
  0.1481  0.1683  0.3049  0.0814

 Free energy of the ion-electron system (eV)
  ---------------------------------------------------
  alpha Z        PSCENC =         0.04960013
  Ewald energy   TEWEN  =       158.20609327
  -1/2 Hartree   DENC   =      -450.15709593
  -V(xc)+E(xc)   XCENC  =        38.60299120
  PAW double counting   =        83.18811697      -85.48613091
  entropy T*S    EENTRO =        -0.04027025
  eigenvalues    EBANDS =      -122.08914210
  atomic energy  EATOM  =       369.12624373
  ---------------------------------------------------
  free energy    TOTEN  =        -8.59959389 eV

  energy without entropy =       -8.55932364  energy(sigma->0) =       -8.58617047


--------------------------------------------------------------------------------------------------------




----------------------------------------- Iteration    1(  30)  ---------------------------------------


    POTLOK:  VPU time   11.25: CPU time   11.28
    SETDIJ:  VPU time    0.09: CPU time    0.09
    EDDAV :  VPU time    8.91: CPU time    8.93
    DOS   :  VPU time    0.00: CPU time   -0.00
    CHARGE:  VPU time    2.40: CPU time    2.41
    MIXING:  VPU time    1.08: CPU time    1.08
    ------------------------------------------
      LOOP:  VPU time   23.74: CPU time   23.80

 eigenvalue-minimisations  :    64
 total energy-change (2. order) :-0.8434421E-01  (-0.1853610E-02)
 number of electron   13.9908278 magnetization    8.8386658
 augmentation part     0.0748170 magnetization    1.1169096

 Broyden mixing:
  rms(total) = 0.47514E+00    rms(broyden)= 0.47513E+00
  rms(prec ) = 0.50479E+00
  weight for this iteration     100.00

 eigenvalues of (default mixing * dielectric matrix)
  average eigenvalue GAMMA=   0.6777
  1.6949  1.3774  1.1517  1.1517  0.8886  0.8886  0.8637  0.8637  0.5548  0.8357
  0.8357  0.2886  0.5102  0.5102  0.7123  0.7123  0.6302  0.6302  0.4211  0.4211
  0.1481  0.1683  0.3009  0.3009  0.0814

 Free energy of the ion-electron system (eV)
  ---------------------------------------------------
  alpha Z        PSCENC =         0.04960013
  Ewald energy   TEWEN  =       158.20609327
  -1/2 Hartree   DENC   =      -450.77836599
  -V(xc)+E(xc)   XCENC  =        38.57478062
  PAW double counting   =        83.32993364      -85.62825593
  entropy T*S    EENTRO =        -0.04114394
  eigenvalues    EBANDS =      -121.52282362
  atomic energy  EATOM  =       369.12624373
  ---------------------------------------------------
  free energy    TOTEN  =        -8.68393810 eV

  energy without entropy =       -8.64279415  energy(sigma->0) =       -8.67022345


--------------------------------------------------------------------------------------------------------




----------------------------------------- Iteration    1(  31)  ---------------------------------------


    POTLOK:  VPU time   11.25: CPU time   11.28
    SETDIJ:  VPU time    0.09: CPU time    0.09
    EDDAV :  VPU time    9.59: CPU time    9.61
    DOS   :  VPU time    0.00: CPU time   -0.00
    CHARGE:  VPU time    2.38: CPU time    2.39
    MIXING:  VPU time    1.12: CPU time    1.14
    ------------------------------------------
      LOOP:  VPU time   24.43: CPU time   24.51

 eigenvalue-minimisations  :    72
 total energy-change (2. order) :-0.1292835E+00  (-0.2013142E-01)
 number of electron   13.9907991 magnetization    8.8340456
 augmentation part     0.0736795 magnetization    1.0857105

 Broyden mixing:
  rms(total) = 0.44060E+00    rms(broyden)= 0.44059E+00
  rms(prec ) = 0.46698E+00
  weight for this iteration     100.00

 eigenvalues of (default mixing * dielectric matrix)
  average eigenvalue GAMMA=   0.6646
  1.6925  1.3508  1.1776  1.1776  0.8896  0.8896  0.8452  0.8452  0.5549  0.8334
  0.8334  0.5088  0.5088  0.7187  0.7187  0.6249  0.6249  0.2886  0.4238  0.4238
  0.1481  0.1683  0.3415  0.3415  0.2683  0.0814

 Free energy of the ion-electron system (eV)
  ---------------------------------------------------
  alpha Z        PSCENC =         0.04960013
  Ewald energy   TEWEN  =       158.20609327
  -1/2 Hartree   DENC   =      -451.81219012
  -V(xc)+E(xc)   XCENC  =        38.55956812
  PAW double counting   =        83.46416534      -85.76748970
  entropy T*S    EENTRO =        -0.04664857
  eigenvalues    EBANDS =      -120.59256379
  atomic energy  EATOM  =       369.12624373
  ---------------------------------------------------
  free energy    TOTEN  =        -8.81322158 eV

  energy without entropy =       -8.76657301  energy(sigma->0) =       -8.79767205


--------------------------------------------------------------------------------------------------------




----------------------------------------- Iteration    1(  32)  ---------------------------------------


    POTLOK:  VPU time   11.26: CPU time   11.29
    SETDIJ:  VPU time    0.09: CPU time    0.09
    EDDAV :  VPU time   12.57: CPU time   12.61
    DOS   :  VPU time    0.00: CPU time   -0.00
    CHARGE:  VPU time    2.41: CPU time    2.41
    MIXING:  VPU time    1.21: CPU time    1.21
    ------------------------------------------
      LOOP:  VPU time   27.54: CPU time   27.61

 eigenvalue-minimisations  :   104
 total energy-change (2. order) :-0.2636805E+01  (-0.2573721E+01)
 number of electron   13.9907503 magnetization    8.8327992
 augmentation part     0.0239279 magnetization    1.0667062

 Broyden mixing:
  rms(total) = 0.72361E+00    rms(broyden)= 0.72340E+00
  rms(prec ) = 0.76272E+00
  weight for this iteration     100.00

 eigenvalues of (default mixing * dielectric matrix)
  average eigenvalue GAMMA=   0.6408
  1.6859  1.3472  1.1759  1.1759  0.8897  0.8897  0.8436  0.8436  0.5549  0.8334
  0.8334  0.5087  0.5087  0.7218  0.7218  0.6234  0.6234  0.4240  0.4240  0.3427
  0.3427  0.1481  0.1683  0.2886  0.2953  0.0052  0.0814

 Free energy of the ion-electron system (eV)
  ---------------------------------------------------
  alpha Z        PSCENC =         0.04960013
  Ewald energy   TEWEN  =       158.20609327
  -1/2 Hartree   DENC   =      -451.68648386
  -V(xc)+E(xc)   XCENC  =        38.54606255
  PAW double counting   =        83.45595090      -85.75909777
  entropy T*S    EENTRO =         0.02925139
  eigenvalues    EBANDS =      -123.41764703
  atomic energy  EATOM  =       369.12624373
  ---------------------------------------------------
  free energy    TOTEN  =       -11.45002668 eV

  energy without entropy =      -11.47927807  energy(sigma->0) =      -11.45977714


--------------------------------------------------------------------------------------------------------




----------------------------------------- Iteration    1(  33)  ---------------------------------------


    POTLOK:  VPU time   11.15: CPU time   11.18
    SETDIJ:  VPU time    0.09: CPU time    0.09
    EDDAV :  VPU time    8.81: CPU time    8.83
    DOS   :  VPU time    0.00: CPU time   -0.00
    CHARGE:  VPU time    2.35: CPU time    2.35
    MIXING:  VPU time    1.25: CPU time    1.26
    ------------------------------------------
      LOOP:  VPU time   23.65: CPU time   24.00

 eigenvalue-minimisations  :    64
 total energy-change (2. order) : 0.2640624E+01  (-0.1554734E+02)
 number of electron   13.9908119 magnetization    8.8293595
 augmentation part     0.0732974 magnetization    1.0764282

 Broyden mixing:
  rms(total) = 0.43816E+00    rms(broyden)= 0.43793E+00
  rms(prec ) = 0.46409E+00
  weight for this iteration     100.00

 eigenvalues of (default mixing * dielectric matrix)
  average eigenvalue GAMMA=   0.6717
  1.4693  1.7282  1.1269  1.1269  0.8899  0.8899  1.0026  1.0026  0.5547  0.8366
  0.8366  0.2886  0.6304  0.6304  0.7637  0.7637  0.5030  0.5030  0.6200  0.6200
  0.4299  0.4299  0.3776  0.3776  0.1481  0.1683  0.0093  0.0814

 Free energy of the ion-electron system (eV)
  ---------------------------------------------------
  alpha Z        PSCENC =         0.04960013
  Ewald energy   TEWEN  =       158.20609327
  -1/2 Hartree   DENC   =      -451.62679427
  -V(xc)+E(xc)   XCENC  =        38.56420642
  PAW double counting   =        83.43894767      -85.74195540
  entropy T*S    EENTRO =        -0.04786321
  eigenvalues    EBANDS =      -120.77788123
  atomic energy  EATOM  =       369.12624373
  ---------------------------------------------------
  free energy    TOTEN  =        -8.80940288 eV

  energy without entropy =       -8.76153968  energy(sigma->0) =       -8.79344848


--------------------------------------------------------------------------------------------------------




----------------------------------------- Iteration    1(  34)  ---------------------------------------


    POTLOK:  VPU time   11.27: CPU time   11.29
    SETDIJ:  VPU time    0.09: CPU time    0.09
    EDDAV :  VPU time   11.79: CPU time   11.82
    DOS   :  VPU time    0.00: CPU time   -0.00
    CHARGE:  VPU time    2.36: CPU time    2.36
    MIXING:  VPU time    1.34: CPU time    1.34
    ------------------------------------------
      LOOP:  VPU time   26.85: CPU time   26.93

 eigenvalue-minimisations  :    96
 total energy-change (2. order) :-0.2612056E-01  (-0.3175687E-03)
 number of electron   13.9908012 magnetization    8.8241411
 augmentation part     0.0733401 magnetization    1.0705915

 Broyden mixing:
  rms(total) = 0.43892E+00    rms(broyden)= 0.43891E+00
  rms(prec ) = 0.46518E+00
  weight for this iteration     100.00

 eigenvalues of (default mixing * dielectric matrix)
  average eigenvalue GAMMA=   0.6848
  1.3753  1.6933  1.5112  1.5112  0.8925  0.8925  0.7784  0.9282  0.9282  0.5546
  0.8371  0.8371  0.2886  0.7667  0.7667  0.5072  0.5072  0.6088  0.6088  0.5178
  0.5178  0.4316  0.4316  0.3800  0.3800  0.1481  0.1683  0.0094  0.0814

 Free energy of the ion-electron system (eV)
  ---------------------------------------------------
  alpha Z        PSCENC =         0.04960013
  Ewald energy   TEWEN  =       158.20609327
  -1/2 Hartree   DENC   =      -451.45661031
  -V(xc)+E(xc)   XCENC  =        38.53800899
  PAW double counting   =        83.40482679      -85.70712370
  entropy T*S    EENTRO =        -0.04800316
  eigenvalues    EBANDS =      -120.94855919
  atomic energy  EATOM  =       369.12624373
  ---------------------------------------------------
  free energy    TOTEN  =        -8.83552344 eV

  energy without entropy =       -8.78752028  energy(sigma->0) =       -8.81952239


--------------------------------------------------------------------------------------------------------




----------------------------------------- Iteration    1(  35)  ---------------------------------------


    POTLOK:  VPU time   11.23: CPU time   11.26
    SETDIJ:  VPU time    0.09: CPU time    0.09
    EDDAV :  VPU time   10.26: CPU time   10.28
    DOS   :  VPU time    0.00: CPU time   -0.00
    CHARGE:  VPU time    2.42: CPU time    2.42
    MIXING:  VPU time    1.39: CPU time    1.40
    ------------------------------------------
      LOOP:  VPU time   25.39: CPU time   25.47

 eigenvalue-minimisations  :    80
 total energy-change (2. order) :-0.8289679E-01  (-0.9330461E-02)
[...]
    EDDAV :  VPU time   11.40: CPU time   11.43
    DOS   :  VPU time   -0.00: CPU time   -0.00
    CHARGE:  VPU time    2.24: CPU time    2.25
    MIXING:  VPU time    1.88: CPU time    1.89
    ------------------------------------------
      LOOP:  VPU time   27.65: CPU time   27.72

 eigenvalue-minimisations  :    80
 total energy-change (2. order) : 0.6983329E+04  (-0.2385881E+03)
 number of electron   13.9796979 magnetization    1.9856503
 augmentation part     0.1905410 magnetization    0.0887800

 Broyden mixing:
  rms(total) = 0.21419E+00    rms(broyden)= 0.19753E+00
  rms(prec ) = 0.20989E+00
  weight for this iteration     100.00

 eigenvalues of (default mixing * dielectric matrix)
  average eigenvalue GAMMA=   0.6129
  2.8306  2.8306  1.6301  1.6301  0.8328  0.8328  1.0718  1.0718  0.9023  0.9023
  0.7882  0.7882  0.6484  0.6484  0.5526  0.5526  0.5378  0.5378  0.3704  0.3704
  0.3293  0.2638  0.2638  0.1034  0.0830  0.0366  0.0217  0.0115  0.0024  0.0023
  0.0021  0.0003  0.0005  0.0009  0.0009

 Free energy of the ion-electron system (eV)
  ---------------------------------------------------
  alpha Z        PSCENC =         0.11931893
  Ewald energy   TEWEN  =       218.27715520
  -1/2 Hartree   DENC   =      -502.96879759
  -V(xc)+E(xc)   XCENC  =        41.10932853
  PAW double counting   =       125.29287420     -127.85800709
  entropy T*S    EENTRO =         0.00612423
  eigenvalues    EBANDS =      -144.19421043
  atomic energy  EATOM  =       369.12624373
  ---------------------------------------------------
  free energy    TOTEN  =       -21.08997030 eV

  energy without entropy =      -21.09609453  energy(sigma->0) =      -21.09201171


--------------------------------------------------------------------------------------------------------




----------------------------------------- Iteration   30(  37)  ---------------------------------------


    POTLOK:  VPU time   12.49: CPU time   12.51
    SETDIJ:  VPU time    0.08: CPU time    0.08
    EDDAV :  VPU time   10.58: CPU time   10.60
    DOS   :  VPU time    0.00: CPU time   -0.00
    CHARGE:  VPU time    2.23: CPU time    2.24
    MIXING:  VPU time    1.95: CPU time    1.96
    ------------------------------------------
      LOOP:  VPU time   27.33: CPU time   27.40

 eigenvalue-minimisations  :    72
 total energy-change (2. order) :-0.1142566E+01  (-0.2239359E+01)
 number of electron   13.9794870 magnetization    1.9839499
 augmentation part     0.2176909 magnetization    0.0993386

 Broyden mixing:
  rms(total) = 0.53096E-01    rms(broyden)= 0.49785E-01
  rms(prec ) = 0.52621E-01
  weight for this iteration     100.00

 eigenvalues of (default mixing * dielectric matrix)
  average eigenvalue GAMMA=   0.6008
  2.8127  2.8127  1.6242  1.6242  1.0792  1.0792  0.8560  0.8560  0.8919  0.8919
  0.7881  0.7881  0.6468  0.6468  0.5501  0.5501  0.5379  0.5379  0.3901  0.3901
  0.3292  0.2715  0.2715  0.0865  0.0865  0.1034  0.0829  0.0217  0.0115  0.0024
  0.0022  0.0021  0.0009  0.0009  0.0005  0.0003

 Free energy of the ion-electron system (eV)
  ---------------------------------------------------
  alpha Z        PSCENC =         0.11931893
  Ewald energy   TEWEN  =       218.27715520
  -1/2 Hartree   DENC   =      -502.51304883
  -V(xc)+E(xc)   XCENC  =        40.88181800
  PAW double counting   =       125.07580529     -127.63757641
  entropy T*S    EENTRO =         0.00580347
  eigenvalues    EBANDS =      -145.56805560
  atomic energy  EATOM  =       369.12624373
  ---------------------------------------------------
  free energy    TOTEN  =       -22.23253622 eV

  energy without entropy =      -22.23833969  energy(sigma->0) =      -22.23447071


--------------------------------------------------------------------------------------------------------




----------------------------------------- Iteration   30(  38)  ---------------------------------------


    POTLOK:  VPU time   12.62: CPU time   12.65
    SETDIJ:  VPU time    0.09: CPU time    0.09
    EDDAV :  VPU time   11.73: CPU time   11.76
    DOS   :  VPU time    0.00: CPU time   -0.00
    CHARGE:  VPU time    2.19: CPU time    2.19
    MIXING:  VPU time    2.10: CPU time    2.11
    ------------------------------------------
      LOOP:  VPU time   28.73: CPU time   28.80

 eigenvalue-minimisations  :    80
 total energy-change (2. order) :-0.2117314E+00  (-0.1850797E+00)
 number of electron   13.9795301 magnetization    1.9828828
 augmentation part     0.2195492 magnetization    0.0985737

 Broyden mixing:
  rms(total) = 0.30515E-01    rms(broyden)= 0.30177E-01
  rms(prec ) = 0.32294E-01
  weight for this iteration     100.00

 eigenvalues of (default mixing * dielectric matrix)
  average eigenvalue GAMMA=   0.6247
  2.8771  2.8771  1.5195  1.5195  1.1315  1.1315  1.0604  1.0604  0.9310  0.9310
  0.7838  0.7838  0.6144  0.6144  0.6475  0.6475  0.5506  0.5506  0.5359  0.5359
  0.3563  0.3563  0.3300  0.2632  0.1374  0.1374  0.1034  0.0829  0.0217  0.0115
  0.0024  0.0022  0.0021  0.0003  0.0005  0.0009  0.0009

 Free energy of the ion-electron system (eV)
  ---------------------------------------------------
  alpha Z        PSCENC =         0.11931893
  Ewald energy   TEWEN  =       218.27715520
  -1/2 Hartree   DENC   =      -503.41670677
  -V(xc)+E(xc)   XCENC  =        40.92959078
  PAW double counting   =       125.26539276     -127.82796916
  entropy T*S    EENTRO =         0.00615290
  eigenvalues    EBANDS =      -144.92344596
  atomic energy  EATOM  =       369.12624373
  ---------------------------------------------------
  free energy    TOTEN  =       -22.44426758 eV

  energy without entropy =      -22.45042048  energy(sigma->0) =      -22.44631855


--------------------------------------------------------------------------------------------------------




----------------------------------------- Iteration   30(  39)  ---------------------------------------


    POTLOK:  VPU time   12.60: CPU time   12.63
    SETDIJ:  VPU time    0.08: CPU time    0.08
    EDDAV :  VPU time   12.97: CPU time   13.01
    DOS   :  VPU time    0.00: CPU time   -0.00
    CHARGE:  VPU time    2.21: CPU time    2.22
    MIXING:  VPU time    2.11: CPU time    2.12
    ------------------------------------------
      LOOP:  VPU time   29.99: CPU time   30.06

 eigenvalue-minimisations  :    96
 total energy-change (2. order) :-0.1603011E-01  ( 0.9622999E-03)
 number of electron   13.9795714 magnetization    1.9813517
 augmentation part     0.2203808 magnetization    0.0974682

 Broyden mixing:
  rms(total) = 0.35335E-01    rms(broyden)= 0.35322E-01
  rms(prec ) = 0.38173E-01
  weight for this iteration     100.00

 eigenvalues of (default mixing * dielectric matrix)
  average eigenvalue GAMMA=   0.6523
  2.8611  2.8611  1.6166  1.6166  1.3074  1.3074  1.0415  1.0415  1.0499  1.0499
  0.8083  0.8083  0.7839  0.7839  0.6474  0.6474  0.5609  0.5609  0.5364  0.5364
  0.4210  0.4210  0.3919  0.3326  0.2960  0.1338  0.1338  0.1034  0.0829  0.0217
  0.0115  0.0024  0.0022  0.0021  0.0003  0.0005  0.0009  0.0009

 Free energy of the ion-electron system (eV)
  ---------------------------------------------------
  alpha Z        PSCENC =         0.11931893
  Ewald energy   TEWEN  =       218.27715520
  -1/2 Hartree   DENC   =      -503.08494074
  -V(xc)+E(xc)   XCENC  =        40.89746234
  PAW double counting   =       125.25432049     -127.81826344
  entropy T*S    EENTRO =         0.00619236
  eigenvalues    EBANDS =      -145.23778655
  atomic energy  EATOM  =       369.12624373
  ---------------------------------------------------
  free energy    TOTEN  =       -22.46029769 eV

  energy without entropy =      -22.46649005  energy(sigma->0) =      -22.46236181


--------------------------------------------------------------------------------------------------------




----------------------------------------- Iteration   30(  40)  ---------------------------------------


    POTLOK:  VPU time   12.42: CPU time   12.47
    SETDIJ:  VPU time    0.08: CPU time    0.08
    EDDAV :  VPU time   14.33: CPU time   14.37
    DOS   :  VPU time    0.00: CPU time   -0.00
    ------------------------------------------
      LOOP:  VPU time   26.84: CPU time   26.92

 eigenvalue-minimisations  :   104
 total energy-change (2. order) :-0.1227047E-02  ( 0.3353427E-02)
 number of electron   13.9795714 magnetization    1.9813517
 augmentation part     0.2203808 magnetization    0.0974682

 Free energy of the ion-electron system (eV)
  ---------------------------------------------------
  alpha Z        PSCENC =         0.11931893
  Ewald energy   TEWEN  =       218.27715520
  -1/2 Hartree   DENC   =      -503.05873824
  -V(xc)+E(xc)   XCENC  =        40.89275185
  PAW double counting   =       125.23283210     -127.79678886
  entropy T*S    EENTRO =         0.00619531
  eigenvalues    EBANDS =      -145.26049477
  atomic energy  EATOM  =       369.12624373
  ---------------------------------------------------
  free energy    TOTEN  =       -22.46152474 eV

  energy without entropy =      -22.46772004  energy(sigma->0) =      -22.46358984


--------------------------------------------------------------------------------------------------------




 average (electrostatic) potential at core
  the test charge radii are     0.6991  0.5201
  (the norm of the test charge is              1.0000)
       1 -60.3118       2 -59.7252       3 -41.5271       4 -23.5768       5 -44.6945
       6 -41.1827       7 -42.8239       8 -43.6867
 
 
 
 E-fermi :  -5.6429     XC(G=0):  -0.3941     alpha+bet : -0.0564
   add alpha+bet to get absolut eigen values

 spin component 1

 k-point   1 :       0.0000    0.0000    0.0000
  band No.  band energies     occupation 
      1     -17.0435      1.00000
      2     -16.8877      1.00000
      3     -11.2393      1.00000
      4      -8.4483      1.00000
      5      -7.6267      1.00000
      6      -7.3344      1.00000
      7      -6.1471      1.00105
      8      -5.8104      0.99895
      9      -4.6223     -0.00000
     10      -3.3054     -0.00000
     11      -0.5750     -0.00000
     12      -0.2517     -0.00000
     13      -0.1220      0.00000
     14      -0.0572      0.00000
     15       0.0870      0.00000
     16       0.1360      0.00000

 spin component 2

 k-point   1 :       0.0000    0.0000    0.0000
  band No.  band energies     occupation 
      1     -15.7745      1.00000
      2     -15.6712      1.00000
      3     -10.8596      1.00000
      4      -7.6559      1.00000
      5      -7.4504      1.00000
      6      -7.3114      1.00000
      7      -4.5489     -0.00000
      8      -3.4085     -0.00000
      9      -3.1567     -0.00000
     10      -2.8710     -0.00000
     11      -2.6069     -0.00000
     12      -0.5486     -0.00000
     13      -0.1426      0.00000
     14       0.0774      0.00000
     15       0.1489      0.00000
     16       0.2587      0.00000


--------------------------------------------------------------------------------------------------------


 soft charge-density along one line, spin component           1
         0         1         2         3         4         5         6         7         8         9
 total charge-density along one line
 
 soft charge-density along one line, spin component           2
         0         1         2         3         4         5         6         7         8         9
 total charge-density along one line
 
 pseudopotential strength for first ion, spin component:           1
 10.442   0.027   0.011  -0.011   0.015  -0.008   0.009  -0.013
  0.027  -0.001   0.000   0.000  -0.000  -0.000   0.000  -0.000
  0.011   0.000  -4.523  -0.007   0.011  -0.024  -0.002   0.004
 -0.011   0.000  -0.007  -4.502  -0.039  -0.002  -0.026  -0.003
  0.015  -0.000   0.011  -0.039  -4.489   0.004  -0.003  -0.024
 -0.008  -0.000  -0.024  -0.002   0.004  -0.776   0.000  -0.000
  0.009   0.000  -0.002  -0.026  -0.003   0.000  -0.775  -0.001
 -0.013  -0.000   0.004  -0.003  -0.024  -0.000  -0.001  -0.775
 pseudopotential strength for first ion, spin component:           2
 10.191   0.016  -0.036  -0.007  -0.003   0.023   0.007  -0.001
  0.016  -0.001  -0.000   0.000  -0.000   0.000   0.000   0.000
 -0.036  -0.000  -4.461   0.008  -0.030   0.024  -0.001  -0.001
 -0.007   0.000   0.008  -4.439   0.062  -0.001   0.020   0.011
 -0.003  -0.000  -0.030   0.062  -4.461  -0.001   0.011   0.018
  0.023   0.000   0.024  -0.001  -0.001  -0.773   0.000  -0.001
  0.007   0.000  -0.001   0.020   0.011   0.000  -0.771   0.001
 -0.001   0.000  -0.001   0.011   0.018  -0.001   0.001  -0.772
 total augmentation occupancy for first ion, spin component:           1
  1.757  -0.401   0.023   0.026  -0.024  -0.030  -0.051   0.049
 -0.401   0.286   0.224   0.321  -0.297   0.028   0.046  -0.043
  0.023   0.224   0.476   0.185  -0.353   0.027   0.034  -0.032
  0.026   0.321   0.185   1.149  -0.126   0.033   0.070  -0.058
 -0.024  -0.297  -0.353  -0.126   1.032  -0.032  -0.058   0.063
 -0.030   0.028   0.027   0.033  -0.032   0.003   0.005  -0.004
 -0.051   0.046   0.034   0.070  -0.058   0.005   0.009  -0.008
  0.049  -0.043  -0.032  -0.058   0.063  -0.004  -0.008   0.008
 total augmentation occupancy for first ion, spin component:           2
  0.094  -0.022   0.324  -0.013   0.101   0.004   0.002  -0.001
 -0.022   0.046   0.109   0.010   0.015   0.004   0.003  -0.002
  0.324   0.109   0.407   0.096  -0.275   0.016   0.015  -0.014
 -0.013   0.010   0.096   0.481   0.589  -0.001   0.006   0.002
  0.101   0.015  -0.275   0.589   0.260   0.003   0.008   0.001
  0.004   0.004   0.016  -0.001   0.003   0.000  -0.000   0.000
  0.002   0.003   0.015   0.006   0.008  -0.000   0.001  -0.001
 -0.001  -0.002  -0.014   0.002   0.001   0.000  -0.001   0.001


------------------------ aborting loop because EDIFF is reached ----------------------------------------




--------------------------------------------------------------------------------------------------------


    CHARGE:  VPU time    2.09: CPU time    2.10
    FORLOC:  VPU time    0.27: CPU time    0.27
    FORNL :  VPU time    0.74: CPU time    0.75
    STRESS:  VPU time    1.94: CPU time    1.94
    FORHAR:  VPU time    1.57: CPU time    1.57
    MIXING:  VPU time    2.34: CPU time    2.35
 d Force = 0.1116099E+00[-0.733E-02, 0.231E+00]  d Energy =-0.7193029E+04 0.719E+04
 d Force =-0.6722510E-01[-0.673E-01,-0.672E-01]  d Ewald  =-0.7225538E-01 0.503E-02


--------------------------------------------------------------------------------------------------------



  FREE ENERGIE OF THE ION-ELECTRON SYSTEM (eV)
  ---------------------------------------------------
  free  energy   TOTEN  =       -22.461525 eV

  energy  without entropy=      -22.467720  energy(sigma->0) =      -22.463590
 

  FORCE on cell =-STRESS in cart. coord.  units (eV/reduce length):
  Direction    X        Y        Z        XY       YZ       ZX
  --------------------------------------------------------------------------------------
  Alpha Z      0.12      0.12      0.12
  Ewald       99.65     63.97     54.66    -28.84    -11.33      0.62
  Hartree    167.63    188.56    150.09    -32.48    -25.07      3.31
  E(xc)      -44.21    -44.67    -44.26      0.04      0.05     -0.06
  Local     -372.42   -362.27   -314.31     65.49     39.33     -4.33
  n-local    -16.64    -13.34    -16.69      1.91     -1.32     -0.13
  augment      0.41      0.30      0.37      0.01     -0.01     -0.04
  Kinetic    166.42    167.00    171.77     -9.64      3.11      2.71
  -------------------------------------------------------------------------------------
  Total        0.95     -0.33      1.75     -3.50      4.76      2.08
  in kB        0.24     -0.08      0.43     -0.86      1.17      0.51
  external pressure =        0.20 kB  Pullay stress =        0.00 kB


 VOLUME and BASIS-vectors are now :
 -----------------------------------------------------------------------------
  energy-cutoff  :      400.00
  volume of cell :     6495.21
      direct lattice vectors                 reciprocal lattice vectors
    18.602047731 -0.931529707 -2.665427375     0.055237286  0.004397619  0.008790382
    -0.991856207 20.901823052 -4.224026747     0.004419716  0.050704789  0.013124633
    -2.520125872 -4.456484436 18.065522283     0.009183237  0.012504478  0.059719775

  length of vectors
    18.815111758 21.347421100 18.776964166     0.056104970  0.052562016  0.061702069


 FORCES acting on ions
    electron-ion (+dipol)            ewald-force                    non-local-force                 convergence-correction
 -----------------------------------------------------------------------------------------------
   0.534E+01 -.706E+01 -.348E+02   -.159E+02 0.126E+02 0.456E+02   0.595E+01 -.404E+01 -.631E+01   0.746E-02 -.823E-01 0.394E-01
   0.353E+01 -.943E+01 0.369E+02   -.422E+01 0.759E+01 -.388E+02   -.842E+00 0.207E+01 -.228E+01   -.134E+00 0.871E-01 -.338E-01
   0.779E+01 0.115E+02 -.743E+01   -.710E+01 -.107E+02 0.705E+01   0.145E+00 0.761E-01 -.106E+00   -.396E-01 -.421E-01 0.231E-01
   0.327E+01 0.604E+01 0.631E+01   -.325E+01 -.600E+01 -.625E+01   0.137E-01 -.126E-01 0.559E-02   -.165E-01 -.163E-01 -.197E-01
   -.341E+02 0.205E+02 0.308E+02   0.429E+02 -.258E+02 -.401E+02   -.507E+01 0.317E+01 0.540E+01   0.114E+00 -.804E-01 -.118E+00
   -.766E+01 -.101E+02 0.159E+02   0.657E+01 0.926E+01 -.143E+02   -.228E+00 -.195E+00 0.376E+00   0.705E-02 0.246E-01 -.337E-01
   0.489E+02 0.513E+01 0.910E+00   -.534E+02 -.556E+01 -.122E+01   0.543E+01 0.880E+00 -.565E-02   -.105E+00 -.391E-02 -.747E-02
   -.278E+02 -.162E+02 -.397E+02   0.344E+02 0.186E+02 0.481E+02   -.439E+01 -.166E+01 -.573E+01   0.406E-01 0.498E-01 0.769E-01
 -----------------------------------------------------------------------------------------------
   -.757E+00 0.312E+00 0.880E+01   0.711E-14 -.711E-14 0.000E+00   0.100E+01 0.290E+00 -.864E+01   -.126E+00 -.634E-01 -.728E-01
 
 
 POSITION                                       TOTAL-FORCE (eV/Angst)
 -----------------------------------------------------------------------------------
      1.95664     18.24088     -0.57856        -4.650047      1.400490      4.486434
      0.76558      0.32375      2.68002        -1.684516      0.256034     -4.253301
      0.43336     16.64812      0.31955         0.779176      0.785402     -0.476679
      0.07630     16.68219     -3.13076         0.006970     -0.050605      0.029172
      2.57539     17.86056     -1.23447         3.819337     -2.359401     -4.059099
      1.75552      1.21262      0.99324        -1.320589     -1.116264      1.941497
     -0.33466      0.15150      2.68142         0.872284      0.380295     -0.334986
      1.35428      0.54838      3.46189         2.177385      0.704049      2.666962
 -----------------------------------------------------------------------------------
    total drift:                                0.116960      0.538029      0.085043


--------------------------------------------------------------------------------------------------------




--------------------------------------------------------------------------------------------------------


  
 reached required accuracy - stopping structural energy minimisation
 writing wavefunctions
     LOOP+:  VPU time 1129.49: CPU time 1169.14
  
  
 General timing and accounting informations for this job:
 ========================================================
  
                  Total CPU time used (sec):    32465.668
                            User time (sec):    31386.218
                          System time (sec):     1079.451
                         Elapsed time (sec):    34105.595
  
                   Maximum memory used (kb):      956392.
                   Average memory used (kb):           0.
  
                          Minor page faults:     18113687
                          Major page faults:           36
                 Voluntary context switches:        15940
